ITEM: TIMESTEP
0
ITEM: NUMBER OF ATOMS
0
ITEM: BOX BOUNDS fm fm fm
-3.0000000000000000e+01 3.0000000000000000e+01
-3.0000000000000000e+01 3.0000000000000000e+01
0.0000000000000000e+00 6.0000000000000000e+01
ITEM: ATOMS id type xs ys zs
ITEM: TIMESTEP
1000
ITEM: NUMBER OF ATOMS
16
ITEM: BOX BOUNDS fm fm fm
-3.0000000000000000e+01 3.0000000000000000e+01
-3.0000000000000000e+01 3.0000000000000000e+01
0.0000000000000000e+00 6.0000000000000000e+01
ITEM: ATOMS id type xs ys zs
1 1 0.459553 0.476245 0.956993
2 1 0.481588 0.455599 0.94617
3 1 0.460308 0.459983 0.946382
4 2 0.500813 0.525415 0.945292
5 2 0.500427 0.549701 0.962498
6 2 0.454846 0.537721 0.957483
7 2 0.481849 0.524592 0.954846
8 2 0.471269 0.549555 0.969488
9 2 0.480963 0.548033 0.942579
10 2 0.458358 0.517196 0.950941
11 1 0.534147 0.534164 0.951411
12 1 0.533761 0.549402 0.977362
13 1 0.533557 0.526768 0.971201
14 2 0.519919 0.453321 0.976864
15 2 0.518376 0.480943 0.981733
16 2 0.517562 0.457072 0.953927
ITEM: TIMESTEP
2000
ITEM: NUMBER OF ATOMS
16
ITEM: BOX BOUNDS fm fm fm
-3.0000000000000000e+01 3.0000000000000000e+01
-3.0000000000000000e+01 3.0000000000000000e+01
0.0000000000000000e+00 6.0000000000000000e+01
ITEM: ATOMS id type xs ys zs
3 1 0.460308 0.459983 0.93445
2 1 0.481588 0.455599 0.934206
4 2 0.500813 0.525415 0.933197
9 2 0.480963 0.548033 0.930089
16 2 0.517562 0.457072 0.943192
1 1 0.459553 0.476245 0.946789
10 2 0.458358 0.517196 0.939716
7 2 0.481849 0.524592 0.944267
6 2 0.454846 0.537721 0.947366
11 1 0.534147 0.534164 0.940261
8 2 0.471269 0.549555 0.96186
5 2 0.500427 0.549701 0.95333
14 2 0.519919 0.453321 0.971386
13 1 0.533557 0.526768 0.964008
12 1 0.533761 0.549402 0.972066
15 2 0.518376 0.480943 0.97859
ITEM: TIMESTEP
3000
ITEM: NUMBER OF ATOMS
16
ITEM: BOX BOUNDS fm fm fm
-3.0000000000000000e+01 3.0000000000000000e+01
-3.0000000000000000e+01 3.0000000000000000e+01
0.0000000000000000e+00 6.0000000000000000e+01
ITEM: ATOMS id type xs ys zs
9 2 0.480963 0.548033 0.915933
3 1 0.460308 0.459983 0.920851
2 1 0.481588 0.455599 0.920576
10 2 0.458358 0.517196 0.926824
4 2 0.500813 0.525415 0.919436
16 2 0.517562 0.457072 0.930791
1 1 0.459553 0.476245 0.934918
7 2 0.481849 0.524592 0.932021
6 2 0.454846 0.537721 0.935583
11 1 0.534147 0.534164 0.927445
5 2 0.500427 0.549701 0.942496
13 1 0.533557 0.526768 0.955148
8 2 0.471269 0.549555 0.952566
14 2 0.519919 0.453321 0.964242
15 2 0.518376 0.480943 0.97378
12 1 0.533761 0.549402 0.965104
ITEM: TIMESTEP
4000
ITEM: NUMBER OF ATOMS
16
ITEM: BOX BOUNDS fm fm fm
-3.0000000000000000e+01 3.0000000000000000e+01
-3.0000000000000000e+01 3.0000000000000000e+01
0.0000000000000000e+00 6.0000000000000000e+01
ITEM: ATOMS id type xs ys zs
3 1 0.460308 0.459983 0.905585
2 1 0.481588 0.455599 0.905278
4 2 0.500813 0.525415 0.904008
9 2 0.480963 0.548033 0.90011
16 2 0.517562 0.457072 0.916723
10 2 0.458358 0.517196 0.912266
11 1 0.534147 0.534164 0.912962
1 1 0.459553 0.476245 0.921381
7 2 0.481849 0.524592 0.918109
6 2 0.454846 0.537721 0.922133
5 2 0.500427 0.549701 0.929995
13 1 0.533557 0.526768 0.944621
8 2 0.471269 0.549555 0.941605
14 2 0.519919 0.453321 0.955431
12 1 0.533761 0.549402 0.956475
15 2 0.518376 0.480943 0.967303
ITEM: TIMESTEP
5000
ITEM: NUMBER OF ATOMS
16
ITEM: BOX BOUNDS fm fm fm
-3.0000000000000000e+01 3.0000000000000000e+01
-3.0000000000000000e+01 3.0000000000000000e+01
0.0000000000000000e+00 6.0000000000000000e+01
ITEM: ATOMS id type xs ys zs
9 2 0.480963 0.548033 0.882621
3 1 0.460308 0.459983 0.888653
2 1 0.481588 0.455599 0.888314
4 2 0.500813 0.525415 0.886913
16 2 0.517562 0.457072 0.900988
10 2 0.458358 0.517196 0.89604
7 2 0.481849 0.524592 0.902531
11 1 0.534147 0.534164 0.896813
1 1 0.459553 0.476245 0.906177
6 2 0.454846 0.537721 0.907016
5 2 0.500427 0.549701 0.915827
13 1 0.533557 0.526768 0.932428
8 2 0.471269 0.549555 0.928978
14 2 0.519919 0.453321 0.944953
12 1 0.533761 0.549402 0.94618
15 2 0.518376 0.480943 0.95916
ITEM: TIMESTEP
6000
ITEM: NUMBER OF ATOMS
16
ITEM: BOX BOUNDS fm fm fm
-3.0000000000000000e+01 3.0000000000000000e+01
-3.0000000000000000e+01 3.0000000000000000e+01
0.0000000000000000e+00 6.0000000000000000e+01
ITEM: ATOMS id type xs ys zs
3 1 0.460308 0.459983 0.870054
2 1 0.481588 0.455599 0.869684
4 2 0.500813 0.525415 0.868151
9 2 0.480963 0.548033 0.863465
16 2 0.517562 0.457072 0.883587
10 2 0.458358 0.517196 0.878149
11 1 0.534147 0.534164 0.878997
1 1 0.459553 0.476245 0.889306
7 2 0.481849 0.524592 0.885285
6 2 0.454846 0.537721 0.890233
5 2 0.500427 0.549701 0.899992
8 2 0.471269 0.549555 0.914683
13 1 0.533557 0.526768 0.918568
14 2 0.519919 0.453321 0.932809
12 1 0.533761 0.549402 0.934218
15 2 0.518376 0.480943 0.94935
ITEM: TIMESTEP
7000
ITEM: NUMBER OF ATOMS
32
ITEM: BOX BOUNDS fm fm fm
-3.0000000000000000e+01 3.0000000000000000e+01
-3.0000000000000000e+01 3.0000000000000000e+01
0.0000000000000000e+00 6.0000000000000000e+01
ITEM: ATOMS id type xs ys zs
3 1 0.460308 0.459983 0.849788
2 1 0.481588 0.455599 0.849386
4 2 0.500813 0.525415 0.847723
9 2 0.480963 0.548033 0.842642
10 2 0.458358 0.517196 0.85859
11 1 0.534147 0.534164 0.859514
16 2 0.517562 0.457072 0.864519
1 1 0.459553 0.476245 0.870768
7 2 0.481849 0.524592 0.866373
6 2 0.454846 0.537721 0.871783
5 2 0.500427 0.549701 0.882491
13 1 0.533557 0.526768 0.903042
8 2 0.471269 0.549555 0.898723
14 2 0.519919 0.453321 0.918998
12 1 0.533761 0.549402 0.920589
15 2 0.518376 0.480943 0.937873
17 1 0.466651 0.465318 0.9822
18 1 0.467119 0.468296 0.960891
19 1 0.462537 0.451587 0.956032
20 2 0.498361 0.549982 0.959656
21 2 0.484218 0.53637 0.976353
22 2 0.461889 0.521791 0.978623
23 2 0.509382 0.537495 0.969636
24 2 0.468306 0.516767 0.960849
25 2 0.471169 0.546233 0.946969
26 2 0.459877 0.549444 0.975251
27 1 0.545761 0.534433 0.969163
28 1 0.527767 0.549101 0.96064
29 1 0.516968 0.517753 0.955372
30 2 0.533043 0.454399 0.980563
31 2 0.522708 0.459122 0.951274
32 2 0.535075 0.479771 0.981462
ITEM: TIMESTEP
8000
ITEM: NUMBER OF ATOMS
32
ITEM: BOX BOUNDS fm fm fm
-3.0000000000000000e+01 3.0000000000000000e+01
-3.0000000000000000e+01 3.0000000000000000e+01
0.0000000000000000e+00 6.0000000000000000e+01
ITEM: ATOMS id type xs ys zs
3 1 0.460308 0.459983 0.827856
2 1 0.481588 0.455599 0.827422
4 2 0.500813 0.525415 0.825628
9 2 0.480963 0.548033 0.820152
10 2 0.458358 0.517196 0.837365
11 1 0.534147 0.534164 0.838364
16 2 0.517562 0.457072 0.843785
7 2 0.481849 0.524592 0.845794
1 1 0.459553 0.476245 0.850564
6 2 0.454846 0.537721 0.851666
5 2 0.500427 0.549701 0.863324
8 2 0.471269 0.549555 0.881095
13 1 0.533557 0.526768 0.885848
14 2 0.519919 0.453321 0.90352
12 1 0.533761 0.549402 0.905294
15 2 0.518376 0.480943 0.92473
25 2 0.471169 0.546233 0.935125
19 1 0.462537 0.451587 0.945658
31 2 0.522708 0.459122 0.940103
29 1 0.516968 0.517753 0.944884
20 2 0.498361 0.549982 0.949938
18 1 0.467119 0.468296 0.951407
24 2 0.468306 0.516767 0.951358
23 2 0.509382 0.537495 0.962045
27 1 0.545761 0.534433 0.961456
28 1 0.527767 0.549101 0.951108
22 2 0.461889 0.521791 0.973827
21 2 0.484218 0.53637 0.970696
26 2 0.459877 0.549444 0.969227
30 2 0.533043 0.454399 0.976691
17 1 0.466651 0.465318 0.979422
32 2 0.535075 0.479771 0.978131
ITEM: TIMESTEP
9000
ITEM: NUMBER OF ATOMS
32
ITEM: BOX BOUNDS fm fm fm
-3.0000000000000000e+01 3.0000000000000000e+01
-3.0000000000000000e+01 3.0000000000000000e+01
0.0000000000000000e+00 6.0000000000000000e+01
ITEM: ATOMS id type xs ys zs
9 2 0.480963 0.548033 0.795996
3 1 0.460308 0.459983 0.804257
2 1 0.481588 0.455599 0.803791
4 2 0.500813 0.525415 0.801867
10 2 0.458358 0.517196 0.814473
11 1 0.534147 0.534164 0.815548
16 2 0.517562 0.457072 0.821383
7 2 0.481849 0.524592 0.823549
1 1 0.459553 0.476245 0.828693
6 2 0.454846 0.537721 0.829883
5 2 0.500427 0.549701 0.842489
13 1 0.533557 0.526768 0.866988
8 2 0.471269 0.549555 0.861801
14 2 0.519919 0.453321 0.886376
12 1 0.533761 0.549402 0.888331
15 2 0.518376 0.480943 0.90992
25 2 0.471169 0.546233 0.921615
19 1 0.462537 0.451587 0.933618
31 2 0.522708 0.459122 0.927265
29 1 0.516968 0.517753 0.932729
20 2 0.498361 0.549982 0.938553
18 1 0.467119 0.468296 0.940257
24 2 0.468306 0.516767 0.9402
28 1 0.527767 0.549101 0.93991
23 2 0.509382 0.537495 0.952787
27 1 0.545761 0.534433 0.952083
26 2 0.459877 0.549444 0.961536
30 2 0.533043 0.454399 0.971151
17 1 0.466651 0.465318 0.974978
32 2 0.535075 0.479771 0.973133
22 2 0.461889 0.521791 0.967364
21 2 0.484218 0.53637 0.963372
ITEM: TIMESTEP
10000
ITEM: NUMBER OF ATOMS
32
ITEM: BOX BOUNDS fm fm fm
-3.0000000000000000e+01 3.0000000000000000e+01
-3.0000000000000000e+01 3.0000000000000000e+01
0.0000000000000000e+00 6.0000000000000000e+01
ITEM: ATOMS id type xs ys zs
9 2 0.480963 0.548033 0.770173
3 1 0.460308 0.459983 0.778991
2 1 0.481588 0.455599 0.778494
4 2 0.500813 0.525415 0.776439
10 2 0.458358 0.517196 0.789915
11 1 0.534147 0.534164 0.791065
16 2 0.517562 0.457072 0.797315
1 1 0.459553 0.476245 0.805156
7 2 0.481849 0.524592 0.799637
6 2 0.454846 0.537721 0.806433
5 2 0.500427 0.549701 0.819988
13 1 0.533557 0.526768 0.846462
8 2 0.471269 0.549555 0.84084
14 2 0.519919 0.453321 0.867565
12 1 0.533761 0.549402 0.869703
15 2 0.518376 0.480943 0.893443
31 2 0.522708 0.459122 0.91276
25 2 0.471169 0.546233 0.906438
19 1 0.462537 0.451587 0.919911
18 1 0.467119 0.468296 0.927441
24 2 0.468306 0.516767 0.927376
29 1 0.516968 0.517753 0.918907
20 2 0.498361 0.549982 0.925502
28 1 0.527767 0.549101 0.927045
23 2 0.509382 0.537495 0.941863
27 1 0.545761 0.534433 0.941043
22 2 0.461889 0.521791 0.959234
21 2 0.484218 0.53637 0.954381
26 2 0.459877 0.549444 0.952178
30 2 0.533043 0.454399 0.963945
17 1 0.466651 0.465318 0.968867
32 2 0.535075 0.479771 0.966468
