ITEM: TIMESTEP
0
ITEM: NUMBER OF ATOMS
32000
ITEM: BOX BOUNDS pp pp fs
0.0000000000000000e+00 4.0000000000000000e+01
1.0000000000000000e+01 2.0000000000000000e+01
0.0000000000000000e+00 3.7292228860000002e+01
ITEM: ATOMS id type xs ys zs
7843 2 0.0358575 0.0330742 0.0105348
23843 2 0.0358575 0.03307 0.0105348
7984 2 0.105937 0.053996 0.00456296
23984 2 0.105937 0.054 0.00456296
7907 2 0.127265 0.00415611 0.00867087
23907 2 0.127265 0.00416 0.00867087
7838 2 0.239589 0.00803563 0.00982988
23838 2 0.239589 0.00804 0.00982988
7991 2 0.299078 0.0136443 0.0112767
23991 2 0.299078 0.01364 0.0112767
7813 2 0.360308 0.0411389 0.00814355
23813 2 0.360308 0.04114 0.00814355
7815 2 0.445283 0.0102396 0.00399888
23815 2 0.445283 0.01024 0.00399888
7801 2 0.4747 0.0419436 0.00867746
23801 2 0.4747 0.04194 0.00867746
7925 2 0.0741477 0.095689 0.0151186
23925 2 0.0741477 0.09569 0.0151186
7879 2 0.25551 0.090667 0.00960315
23879 2 0.25551 0.09067 0.00960315
7994 2 0.280235 0.0782463 0.00770442
23994 2 0.280235 0.07825 0.00770442
7993 2 0.44819 0.108273 0.0086082
23993 2 0.44819 0.10827 0.0086082
7785 2 0.234776 0.148452 0.00896758
23785 2 0.234776 0.14845 0.00896758
7797 2 0.35195 0.158752 0.00381637
23797 2 0.35195 0.15875 0.00381637
7924 2 0.39647 0.11713 0.0019024
23924 2 0.39647 0.11713 0.0019024
7998 2 0.4821 0.140165 0.00707228
23998 2 0.4821 0.14017 0.00707228
7986 2 0.000464635 0.205139 0.000963976
23986 2 0.000464635 0.20514 0.000963976
7884 2 0.0596043 0.201496 0.0127798
23884 2 0.0596043 0.2015 0.0127798
7824 2 0.0860407 0.183432 0.00125167
23824 2 0.0860407 0.18343 0.00125167
7938 2 0.116484 0.17255 0.00800333
23938 2 0.116484 0.17255 0.00800333
7963 2 0.156474 0.181377 0.0131945
23963 2 0.156474 0.18138 0.0131945
7889 2 0.184685 0.202723 0.00321483
23889 2 0.184685 0.20272 0.00321483
7839 2 0.216937 0.220739 0.0041337
23839 2 0.216937 0.22074 0.0041337
7918 2 0.258168 0.212513 0.00877867
23918 2 0.258168 0.21251 0.00877867
7845 2 0.281985 0.184561 0.00532291
23845 2 0.281985 0.18456 0.00532291
7922 2 0.102748 0.256109 0.00746652
23922 2 0.102748 0.25611 0.00746652
7781 2 0.238387 0.274103 0.00796209
23781 2 0.238387 0.2741 0.00796209
7812 2 0.30309 0.238759 0.00758236
23812 2 0.30309 0.23876 0.00758236
7835 2 0.328053 0.235001 0.00838955
23835 2 0.328053 0.235 0.00838955
7819 2 0.40751 0.234618 0.00285204
23819 2 0.40751 0.23462 0.00285204
7972 2 0.480042 0.240498 0.0134288
23972 2 0.480042 0.2405 0.0134288
7791 2 0.05804 0.309892 0.0116302
23791 2 0.05804 0.30989 0.0116302
7927 2 0.0829755 0.313062 0.0133447
23927 2 0.0829755 0.31306 0.0133447
7953 2 0.1847 0.312733 0
23953 2 0.1847 0.31273 0
7784 2 0.214812 0.327862 0.00818208
23784 2 0.214812 0.32786 0.00818208
7795 2 0.321557 0.330354 0.0125345
23795 2 0.321557 0.33035 0.0125345
7857 2 0.366088 0.328967 0.0142066
23857 2 0.366088 0.32897 0.0142066
7851 2 0.385808 0.285559 0.00244209
23851 2 0.385808 0.28556 0.00244209
7828 2 0.238872 0.373964 0.00945001
23828 2 0.238872 0.37396 0.00945001
7979 2 0.296115 0.334793 0.0127258
23979 2 0.296115 0.33479 0.0127258
7908 2 0.409475 0.33398 0.00722537
23908 2 0.409475 0.33398 0.00722537
7825 2 0.445075 0.363336 0.01063
23825 2 0.445075 0.36334 0.01063
7790 2 0.0243098 0.435748 0.0126111
23790 2 0.0243098 0.43575 0.0126111
7981 2 0.0802873 0.440747 0.0123627
23981 2 0.0802873 0.44075 0.0123627
7786 2 0.165639 0.423972 0.00149482
23786 2 0.165639 0.42397 0.00149482
7822 2 0.193398 0.426422 0.0044346
23822 2 0.193398 0.42642 0.0044346
7867 2 0.258248 0.441509 0.00847294
23867 2 0.258248 0.44151 0.00847294
7914 2 0.28319 0.426128 0.0129315
23914 2 0.28319 0.42613 0.0129315
7974 2 0.416643 0.428193 0.000544398
23974 2 0.416643 0.42819 0.000544398
7859 2 0.480645 0.40228 0.0136376
23859 2 0.480645 0.40228 0.0136376
7882 2 0.00047162 0.455986 0.00480663
23882 2 0.00047162 0.45599 0.00480663
7774 2 0.344133 0.481384 0.00147206
23774 2 0.344133 0.48138 0.00147206
7899 2 0.0131782 0.542338 0.00305951
23899 2 0.0131782 0.54234 0.00305951
7976 2 0.0369478 0.508773 0.000156942
23976 2 0.0369478 0.50877 0.000156942
7837 2 0.0960918 0.518654 0.00999391
23837 2 0.0960918 0.51865 0.00999391
7873 2 0.181078 0.512932 0.00962774
23873 2 0.181078 0.51293 0.00962774
7862 2 0.213304 0.506959 0.0121968
23862 2 0.213304 0.50696 0.0121968
7965 2 0.238013 0.500784 0.0081783
23965 2 0.238013 0.50078 0.0081783
7905 2 0.274303 0.518507 0.00868782
23905 2 0.274303 0.51851 0.00868782
7961 2 0.298822 0.52993 0.00420825
23961 2 0.298822 0.52993 0.00420825
7956 2 0.450378 0.530098 0.0138278
23956 2 0.450378 0.5301 0.0138278
7872 2 0.474685 0.500692 0.0106448
23872 2 0.474685 0.50069 0.0106448
7949 2 0.0661618 0.569811 0.011982
23949 2 0.0661618 0.56981 0.011982
7937 2 0.115929 0.578093 0.00650602
23937 2 0.115929 0.57809 0.00650602
7846 2 0.166113 0.594805 0.00907001
23846 2 0.166113 0.59481 0.00907001
7788 2 0.198045 0.586191 0.01135
23788 2 0.198045 0.58619 0.01135
7996 2 0.221749 0.595082 0.00307646
23996 2 0.221749 0.59508 0.00307646
7826 2 0.247771 0.5887 0.000629276
23826 2 0.247771 0.5887 0.000629276
7832 2 0.43012 0.59039 0.0130043
23832 2 0.43012 0.59039 0.0130043
7881 2 0.491895 0.58048 0.0127897
23881 2 0.491895 0.58048 0.0127897
7954 2 0.0769778 0.66098 0.0116747
23954 2 0.0769778 0.66098 0.0116747
7885 2 0.102198 0.659806 0.0112169
23885 2 0.102198 0.65981 0.0112169
7871 2 0.26129 0.666163 0.0102506
23871 2 0.26129 0.66616 0.0102506
7967 2 0.2995 0.638658 0.0100417
23967 2 0.2995 0.63866 0.0100417
7811 2 0.333755 0.648777 0.000748853
23811 2 0.333755 0.64878 0.000748853
7830 2 0.450472 0.648672 0.0122621
23830 2 0.450472 0.64867 0.0122621
7985 2 0.05207 0.670696 0.0102872
23985 2 0.05207 0.6707 0.0102872
7997 2 0.127139 0.667814 0.00837754
23997 2 0.127139 0.66781 0.00837754
7911 2 0.15088 0.693412 0.00352277
23911 2 0.15088 0.69341 0.00352277
7880 2 0.174961 0.688181 0.0106635
23880 2 0.174961 0.68818 0.0106635
7866 2 0.214655 0.719278 0.0144339
23866 2 0.214655 0.71928 0.0144339
7920 2 0.23637 0.672652 0.00977936
23920 2 0.23637 0.67265 0.00977936
7776 2 0.428015 0.688978 0.00773306
23776 2 0.428015 0.68898 0.00773306
7995 2 0.475708 0.672225 0.0118345
23995 2 0.475708 0.67222 0.0118345
7868 2 0.330568 0.775312 0.0100722
23868 2 0.330568 0.77531 0.0100722
7942 2 0.354633 0.748183 0.0103611
23942 2 0.354633 0.74818 0.0103611
7802 2 0.38171 0.744564 0.0148109
23802 2 0.38171 0.74456 0.0148109
7869 2 0.45884 0.745294 0.00733241
23869 2 0.45884 0.74529 0.00733241
7971 2 0.483293 0.768328 0.00730284
23971 2 0.483293 0.76833 0.00730284
7964 2 0.0430797 0.788664 0.0137761
23964 2 0.0430797 0.78866 0.0137761
7854 2 0.0681138 0.797258 0.0150966
23854 2 0.0681138 0.79726 0.0150966
7855 2 0.210178 0.805256 0.00159248
23855 2 0.210178 0.80526 0.00159248
7818 2 0.26047 0.794052 0.00338379
23818 2 0.26047 0.79405 0.00338379
7900 2 0.284555 0.819366 0.00043914
23900 2 0.284555 0.81937 0.00043914
7796 2 0.370485 0.832998 0.0092549
23796 2 0.370485 0.833 0.0092549
7888 2 0.435755 0.784142 0.00813231
23888 2 0.435755 0.78414 0.00813231
7816 2 0.0219242 0.842884 0.0129391
23816 2 0.0219242 0.84288 0.0129391
7883 2 0.048066 0.888497 0.0136104
23883 2 0.048066 0.8885 0.0136104
7793 2 0.100557 0.836514 0.0132804
23793 2 0.100557 0.83651 0.0132804
8000 2 0.125794 0.841193 0.0131806
24000 2 0.125794 0.84119 0.0131806
7947 2 0.164183 0.885524 0.00548254
23947 2 0.164183 0.88552 0.00548254
7852 2 0.189424 0.861777 0.00348689
23852 2 0.189424 0.86178 0.00348689
7921 2 0.346518 0.85292 0.0146001
23921 2 0.346518 0.85292 0.0146001
7847 2 0.0269257 0.939902 0.00939507
23847 2 0.0269257 0.9399 0.00939507
7987 2 0.111953 0.924857 0.00870543
23987 2 0.111953 0.92486 0.00870543
7864 2 0.263543 0.894451 0.00631362
23864 2 0.263543 0.89445 0.00631362
7809 2 0.399835 0.933518 0.00732021
23809 2 0.399835 0.93352 0.00732021
7903 2 0.15789 0.995909 0.0104558
23903 2 0.15789 0.99591 0.0104558
7834 2 0.193185 0.977073 0.00491236
23834 2 0.193185 0.97707 0.00491236
7898 2 0.31654 0.952309 0.00126101
23898 2 0.31654 0.95231 0.00126101
7798 2 0.343273 0.948455 0.00556304
23798 2 0.343273 0.94845 0.00556304
7841 2 0.375995 0.96365 0.0061848
23841 2 0.375995 0.96365 0.0061848
7874 2 0.42395 0.959728 0.00736998
23874 2 0.42395 0.95973 0.00736998
7833 2 0.0596683 0.0145551 0.0170867
23833 2 0.0596683 0.01456 0.0170867
7941 2 0.0861703 0.0076741 0.015591
23941 2 0.0861703 0.00767 0.015591
7777 2 0.216967 0.038308 0.024216
23777 2 0.216967 0.03831 0.024216
7780 2 0.383012 0.0172673 0.029146
23780 2 0.383012 0.01727 0.029146
7842 2 0.407282 0.00819743 0.0232306
23842 2 0.407282 0.0082 0.0232306
7779 2 0.0255898 0.10474 0.0257423
23779 2 0.0255898 0.10474 0.0257423
7840 2 0.158207 0.0879587 0.0224688
23840 2 0.158207 0.08796 0.0224688
7778 2 0.18095 0.0559943 0.0152401
23778 2 0.18095 0.05599 0.0152401
7975 2 0.304435 0.101581 0.0226
23975 2 0.304435 0.10158 0.0226
7814 2 0.339948 0.0854118 0.018326
23814 2 0.339948 0.08541 0.018326
7948 2 0.375968 0.10828 0.0206199
23948 2 0.375968 0.10828 0.0206199
7865 2 0.42669 0.067309 0.0166448
23865 2 0.42669 0.06731 0.0166448
7902 2 0.499858 0.0784257 0.0203536
23902 2 0.499858 0.07843 0.0203536
7977 2 0.0499543 0.113341 0.0201137
23977 2 0.0499543 0.11334 0.0201137
7863 2 0.097355 0.127414 0.0202692
23863 2 0.097355 0.12741 0.0202692
7807 2 0.13485 0.122998 0.0207793
23807 2 0.13485 0.123 0.0207793
7940 2 0.177827 0.14997 0.0254506
23940 2 0.177827 0.14997 0.0254506
7877 2 0.20779 0.166533 0.024415
23877 2 0.20779 0.16653 0.024415
7775 2 0.28206 0.13874 0.0291828
23775 2 0.28206 0.13874 0.0291828
7821 2 0.32508 0.160162 0.0261276
23821 2 0.32508 0.16016 0.0261276
7799 2 0.410808 0.141689 0.0231012
23799 2 0.410808 0.14169 0.0231012
7844 2 0.00734945 0.173025 0.0252516
23844 2 0.00734945 0.17302 0.0252516
7893 2 0.0349698 0.19951 0.0180933
23893 2 0.0349698 0.19951 0.0180933
7916 2 0.131531 0.218091 0.0283681
23916 2 0.131531 0.21809 0.0283681
7805 2 0.38923 0.192656 0.0176097
23805 2 0.38923 0.19266 0.0176097
7915 2 0.434225 0.178984 0.02037
23915 2 0.434225 0.17898 0.02037
7978 2 0.462855 0.172726 0.0219307
23978 2 0.462855 0.17273 0.0219307
7960 2 0.176159 0.250104 0.024855
23960 2 0.176159 0.2501 0.024855
7829 2 0.200858 0.263783 0.0223306
23829 2 0.200858 0.26378 0.0223306
7804 2 0.284135 0.257988 0.0243996
23804 2 0.284135 0.25799 0.0243996
7936 2 0.36542 0.222774 0.0187616
23936 2 0.36542 0.22277 0.0187616
1826 1 0.408913 0.257673 0.029234
17826 1 0.408913 0.25767 0.029234
7853 2 0.456595 0.274667 0.0154164
23853 2 0.456595 0.27467 0.0154164
7992 2 0.0191239 0.284849 0.015835
23992 2 0.0191239 0.28485 0.015835
7850 2 0.144706 0.293386 0.0177924
23850 2 0.144706 0.29339 0.0177924
7917 2 0.262788 0.306874 0.0191387
23917 2 0.262788 0.30687 0.0191387
7935 2 0.345993 0.284265 0.0247335
23935 2 0.345993 0.28426 0.0247335
7831 2 0.429893 0.278278 0.0157334
23831 2 0.429893 0.27828 0.0157334
5631 1 0.47392 0.322899 0.029781
21631 1 0.47392 0.3229 0.029781
7930 2 0.0397278 0.365536 0.0225087
23930 2 0.0397278 0.36554 0.0225087
7962 2 0.100357 0.383489 0.0172512
23962 2 0.100357 0.38349 0.0172512
7891 2 0.123095 0.342732 0.0152271
23891 2 0.123095 0.34273 0.0152271
7906 2 0.166831 0.339758 0.0172811
23906 2 0.166831 0.33976 0.0172811
7806 2 0.19167 0.356431 0.0242982
23806 2 0.19167 0.35643 0.0242982
7945 2 0.49784 0.3357 0.0227757
23945 2 0.49784 0.3357 0.0227757
7923 2 0.0562037 0.441007 0.0195913
23923 2 0.0562037 0.44101 0.0195913
7803 2 0.145689 0.435301 0.0173458
23803 2 0.145689 0.4353 0.0173458
7876 2 0.175681 0.4334 0.0261972
23876 2 0.175681 0.4334 0.0261972
7823 2 0.229433 0.438895 0.0271309
23823 2 0.229433 0.4389 0.0271309
7934 2 0.309758 0.419896 0.0152259
23934 2 0.309758 0.4199 0.0152259
7827 2 0.338428 0.39554 0.0217638
23827 2 0.338428 0.39554 0.0217638
7782 2 0.376363 0.419479 0.0174645
23782 2 0.376363 0.41948 0.0174645
7931 2 0.401098 0.421095 0.0213875
23931 2 0.401098 0.4211 0.0213875
7792 2 0.425253 0.396799 0.0242555
23792 2 0.425253 0.3968 0.0242555
7858 2 0.458352 0.437361 0.02165
23858 2 0.458352 0.43736 0.02165
7896 2 0.118232 0.470509 0.0167369
23896 2 0.118232 0.47051 0.0167369
7968 2 0.202214 0.447794 0.0302505
23968 2 0.202214 0.44779 0.0302505
7904 2 0.325163 0.497893 0.0183447
23904 2 0.325163 0.49789 0.0183447
5378 1 0.49309 0.482606 0.0294126
21378 1 0.49309 0.48261 0.0294126
7897 2 0.0169849 0.511516 0.0282536
23897 2 0.0169849 0.51152 0.0282536
7787 2 0.135726 0.543213 0.020367
23787 2 0.135726 0.54321 0.020367
7939 2 0.159762 0.514769 0.0236439
23939 2 0.159762 0.51477 0.0236439
5219 1 0.290673 0.502745 0.0285167
21219 1 0.290673 0.50274 0.0285167
7932 2 0.365795 0.510154 0.0180672
23932 2 0.365795 0.51015 0.0180672
7913 2 0.392933 0.515473 0.0217863
23913 2 0.392933 0.51547 0.0217863
7909 2 0.41907 0.501279 0.0202616
23909 2 0.41907 0.50128 0.0202616
7892 2 0.0395305 0.586686 0.0173111
23892 2 0.0395305 0.58669 0.0173111
5867 1 0.0909878 0.592697 0.02714
21867 1 0.0909878 0.5927 0.02714
7951 2 0.237239 0.590458 0.0250299
23951 2 0.237239 0.59046 0.0250299
7952 2 0.262188 0.58147 0.0251686
23952 2 0.262188 0.58147 0.0251686
7957 2 0.309273 0.56914 0.0263429
23957 2 0.309273 0.56914 0.0263429
7800 2 0.349313 0.588711 0.0157648
23800 2 0.349313 0.58871 0.0157648
7983 2 0.38083 0.602678 0.0188865
23983 2 0.38083 0.60268 0.0188865
7887 2 0.405745 0.609162 0.0166312
23887 2 0.405745 0.60916 0.0166312
5030 1 0.46921 0.586429 0.0243844
21030 1 0.46921 0.58643 0.0243844
7890 2 0.0156185 0.619169 0.0201791
23890 2 0.0156185 0.61917 0.0201791
7970 2 0.157355 0.65764 0.0278656
23970 2 0.157355 0.65764 0.0278656
7946 2 0.280395 0.651481 0.0272035
23946 2 0.280395 0.65148 0.0272035
7959 2 0.00023842 0.699664 0.0159939
23959 2 0.00023842 0.69966 0.0159939
7848 2 0.0300343 0.702904 0.01976
23848 2 0.0300343 0.7029 0.01976
7773 2 0.196466 0.66785 0.0267411
23773 2 0.196466 0.66785 0.0267411
7910 2 0.32596 0.691303 0.0238351
23910 2 0.32596 0.6913 0.0238351
7958 2 0.365753 0.678408 0.0254603
23958 2 0.365753 0.67841 0.0254603
7980 2 0.407473 0.715718 0.0211384
23980 2 0.407473 0.71572 0.0211384
7926 2 0.089867 0.745704 0.0152238
23926 2 0.089867 0.7457 0.0152238
7817 2 0.115608 0.748192 0.0187964
23817 2 0.115608 0.74819 0.0187964
7999 2 0.187231 0.773198 0.0158536
23999 2 0.187231 0.7732 0.0158536
7982 2 0.240026 0.768163 0.0172425
23982 2 0.240026 0.76816 0.0172425
7870 2 0.277833 0.74681 0.0190315
23870 2 0.277833 0.74681 0.0190315
7810 2 0.302388 0.72486 0.0238981
23810 2 0.302388 0.72486 0.0238981
7990 2 0.151671 0.784463 0.0155742
23990 2 0.151671 0.78446 0.0155742
7966 2 0.220384 0.821381 0.0256771
23966 2 0.220384 0.82138 0.0256771
7912 2 0.39041 0.827936 0.0281965
23912 2 0.39041 0.82794 0.0281965
7944 2 0.41407 0.812544 0.0203415
23944 2 0.41407 0.81254 0.0203415
410 1 0.176569 0.853124 0.0271928
16410 1 0.176569 0.85312 0.0271928
7895 2 0.242445 0.871092 0.0220066
23895 2 0.242445 0.87109 0.0220066
7860 2 0.280562 0.867714 0.0261535
23860 2 0.280562 0.86771 0.0261535
7928 2 0.322215 0.86936 0.0188228
23928 2 0.322215 0.86936 0.0188228
7988 2 0.433795 0.877529 0.0187351
23988 2 0.433795 0.87753 0.0187351
7856 2 0.462392 0.83463 0.0200105
23856 2 0.462392 0.83463 0.0200105
7783 2 0.49751 0.838438 0.0190457
23783 2 0.49751 0.83844 0.0190457
7919 2 0.0715392 0.9262 0.0160752
23919 2 0.0715392 0.9262 0.0160752
7820 2 0.0955322 0.928163 0.0288974
23820 2 0.0955322 0.92816 0.0288974
7969 2 0.141149 0.925967 0.0172227
23969 2 0.141149 0.92597 0.0172227
7973 2 0.19497 0.920774 0.027185
23973 2 0.19497 0.92077 0.027185
7836 2 0.218153 0.91646 0.0172372
23836 2 0.218153 0.91646 0.0172372
7943 2 0.301213 0.922504 0.0223597
23943 2 0.301213 0.9225 0.0223597
7878 2 0.36783 0.90852 0.0268892
23878 2 0.36783 0.90852 0.0268892
1797 1 0.412212 0.907813 0.0296083
17797 1 0.412212 0.90781 0.0296083
7950 2 0.454113 0.935692 0.019129
23950 2 0.454113 0.93569 0.019129
7794 2 0.48216 0.919311 0.0204819
23794 2 0.48216 0.91931 0.0204819
7789 2 0.0052404 0.980979 0.0167957
23789 2 0.0052404 0.98098 0.0167957
2041 1 0.174256 0.9758 0.0299869
18041 1 0.174256 0.9758 0.0299869
371 1 0.254292 0.957076 0.0271231
16371 1 0.254292 0.95708 0.0271231
7861 2 0.277828 0.98816 0.0235856
23861 2 0.277828 0.98816 0.0235856
7875 2 0.329583 0.997265 0.0244765
23875 2 0.329583 0.99727 0.0244765
906 1 0.0182107 0.0194242 0.0372611
16906 1 0.0182107 0.01942 0.0372611
817 1 0.0861975 0.00726871 0.0424096
16817 1 0.0861975 0.00727 0.0424096
7955 2 0.108392 0.0266738 0.0307346
23955 2 0.108392 0.02667 0.0307346
96 1 0.139018 0.0324869 0.031372
16096 1 0.139018 0.03249 0.031372
7755 1 0.243513 0.0350077 0.0425249
23755 1 0.243513 0.03501 0.0425249
1041 1 0.30762 0.0139066 0.0364746
17041 1 0.30762 0.01391 0.0364746
7933 2 0.461925 0.0196089 0.0311188
23933 2 0.461925 0.01961 0.0311188
4841 1 0.069775 0.0846343 0.0428526
20841 1 0.069775 0.08463 0.0428526
3244 1 0.196977 0.0844443 0.034534
19244 1 0.196977 0.08444 0.034534
5178 1 0.26671 0.0641422 0.0362789
21178 1 0.26671 0.06414 0.0362789
2630 1 0.332083 0.0871071 0.0437896
18630 1 0.332083 0.08711 0.0437896
5863 1 0.393873 0.0991298 0.0391811
21863 1 0.393873 0.09913 0.0391811
3538 1 0.438345 0.0907002 0.0397973
19538 1 0.438345 0.0907 0.0397973
7894 2 0.477332 0.0986034 0.0309467
23894 2 0.477332 0.0986 0.0309467
3020 1 0.121229 0.129877 0.0431843
19020 1 0.121229 0.12988 0.0431843
376 1 0.231511 0.117361 0.0342208
16376 1 0.231511 0.11736 0.0342208
6380 1 0.257205 0.154073 0.0305222
22380 1 0.257205 0.15407 0.0305222
4684 1 0.354985 0.145227 0.0325467
20684 1 0.354985 0.14523 0.0325467
1441 1 0.031835 0.175448 0.0438936
17441 1 0.031835 0.17545 0.0438936
2804 1 0.05679 0.171872 0.0451099
18804 1 0.05679 0.17187 0.0451099
7808 2 0.0777293 0.177522 0.0305503
23808 2 0.0777293 0.17752 0.0305503
3825 1 0.106917 0.208117 0.0323217
19825 1 0.106917 0.20812 0.0323217
5671 1 0.157214 0.16898 0.039834
21671 1 0.157214 0.16898 0.039834
1883 1 0.27278 0.213719 0.0451094
17883 1 0.27278 0.21372 0.0451094
1107 1 0.302378 0.196184 0.0322333
17107 1 0.302378 0.19618 0.0322333
623 1 0.369658 0.214015 0.0451325
16623 1 0.369658 0.21402 0.0451325
5208 1 0.394493 0.199033 0.0445669
21208 1 0.394493 0.19903 0.0445669
4267 1 0.42213 0.190325 0.0436641
20267 1 0.42213 0.19032 0.0436641
397 1 0.449833 0.177631 0.0448455
16397 1 0.449833 0.17763 0.0448455
2928 1 0.00478917 0.268889 0.0413496
18928 1 0.00478917 0.26889 0.0413496
491 1 0.037282 0.2762 0.0352403
16491 1 0.037282 0.2762 0.0352403
216 1 0.0625477 0.266999 0.0355704
16216 1 0.0625477 0.267 0.0355704
7849 2 0.224227 0.249684 0.0310574
23849 2 0.224227 0.24968 0.0310574
1819 1 0.323773 0.255415 0.0344734
17819 1 0.323773 0.25541 0.0344734
7901 2 0.383348 0.277258 0.0304479
23901 2 0.383348 0.27726 0.0304479
3519 1 0.455045 0.275036 0.0424697
19519 1 0.455045 0.27504 0.0424697
4425 1 0.476525 0.224809 0.03969
20425 1 0.476525 0.22481 0.03969
2026 1 0.0846563 0.31562 0.040084
18026 1 0.0846563 0.31562 0.040084
6949 1 0.109159 0.307067 0.0353181
22949 1 0.109159 0.30707 0.0353181
1253 1 0.134871 0.300972 0.0433852
17253 1 0.134871 0.30097 0.0433852
1535 1 0.159229 0.27864 0.0430599
17535 1 0.159229 0.27864 0.0430599
3474 1 0.241551 0.325298 0.0327119
19474 1 0.241551 0.3253 0.0327119
3234 1 0.304768 0.319382 0.0375899
19234 1 0.304768 0.31938 0.0375899
4000 1 0.430255 0.313181 0.0408458
20000 1 0.430255 0.31318 0.0408458
2477 1 0.152042 0.372193 0.0370713
18477 1 0.152042 0.37219 0.0370713
4316 1 0.217589 0.354163 0.0340741
20316 1 0.217589 0.35416 0.0340741
1935 1 0.27617 0.370812 0.0339545
17935 1 0.27617 0.37081 0.0339545
4187 1 0.3787 0.368293 0.0403749
20187 1 0.3787 0.36829 0.0403749
743 1 0.405065 0.366043 0.0440443
16743 1 0.405065 0.36604 0.0440443
224 1 0.45564 0.375013 0.0424115
16224 1 0.45564 0.37501 0.0424115
1007 1 0.00407075 0.403869 0.0412764
17007 1 0.00407075 0.40387 0.0412764
3786 1 0.0281458 0.429385 0.0391218
19786 1 0.0281458 0.42938 0.0391218
7667 1 0.0774705 0.414714 0.0440944
23667 1 0.0774705 0.41471 0.0440944
453 1 0.254935 0.410066 0.0436069
16453 1 0.254935 0.41007 0.0436069
217 1 0.29803 0.415592 0.0390264
16217 1 0.29803 0.41559 0.0390264
1158 1 0.322063 0.389565 0.0420433
17158 1 0.322063 0.38956 0.0420433
2712 1 0.346383 0.43249 0.0452193
18712 1 0.346383 0.43249 0.0452193
2188 1 0.478805 0.412159 0.040683
18188 1 0.478805 0.41216 0.040683
6262 1 0.0895125 0.496337 0.0351548
22262 1 0.0895125 0.49634 0.0351548
1973 1 0.14231 0.482296 0.0407844
17973 1 0.14231 0.4823 0.0407844
7929 2 0.250105 0.497491 0.0316511
23929 2 0.250105 0.49749 0.0316511
3526 1 0.382495 0.466978 0.0424174
19526 1 0.382495 0.46698 0.0424174
2099 1 0.413143 0.460688 0.04394
18099 1 0.413143 0.46069 0.04394
4851 1 0.44773 0.484043 0.0450279
20851 1 0.44773 0.48404 0.0450279
4769 1 0.042805 0.508048 0.0335177
20769 1 0.042805 0.50805 0.0335177
1086 1 0.0673425 0.537325 0.0408737
17086 1 0.0673425 0.53732 0.0408737
675 1 0.228464 0.52484 0.0429336
16675 1 0.228464 0.52484 0.0429336
6836 1 0.33794 0.548353 0.0370284
22836 1 0.33794 0.54835 0.0370284
4673 1 0.360693 0.515662 0.0442765
20673 1 0.360693 0.51566 0.0442765
139 1 0.471688 0.509031 0.0413083
16139 1 0.471688 0.50903 0.0413083
7011 1 0.00205812 0.570503 0.0428223
23011 1 0.00205812 0.5705 0.0428223
6820 1 0.0287738 0.588341 0.0414909
22820 1 0.0287738 0.58834 0.0414909
4261 1 0.114472 0.565986 0.033109
20261 1 0.114472 0.56599 0.033109
2576 1 0.180784 0.587688 0.0307482
18576 1 0.180784 0.58769 0.0307482
4170 1 0.2133 0.597182 0.032543
20170 1 0.2133 0.59718 0.032543
2389 1 0.279698 0.570453 0.0444736
18389 1 0.279698 0.57045 0.0444736
3205 1 0.375155 0.59728 0.045177
19205 1 0.375155 0.59728 0.045177
519 1 0.407088 0.56148 0.0401537
16519 1 0.407088 0.56148 0.0401537
76 1 0.432063 0.55895 0.0392782
16076 1 0.432063 0.55895 0.0392782
1897 1 0.0635113 0.639475 0.0335051
17897 1 0.0635113 0.63948 0.0335051
5597 1 0.133573 0.632035 0.0324491
21597 1 0.133573 0.63204 0.0324491
3455 1 0.32127 0.627598 0.0438826
19455 1 0.32127 0.6276 0.0438826
1457 1 0.345345 0.643939 0.0378953
17457 1 0.345345 0.64394 0.0378953
4166 1 0.393998 0.655146 0.0368305
20166 1 0.393998 0.65515 0.0368305
584 1 0.418965 0.648931 0.0368508
16584 1 0.418965 0.64893 0.0368508
1922 1 0.443682 0.663526 0.0377776
17922 1 0.443682 0.66353 0.0377776
7749 1 0.042301 0.680759 0.0423574
23749 1 0.042301 0.68076 0.0423574
3242 1 0.086178 0.684537 0.0363615
19242 1 0.086178 0.68454 0.0363615
5443 1 0.11099 0.67227 0.0363279
21443 1 0.11099 0.67227 0.0363279
5709 1 0.236429 0.680698 0.0370332
21709 1 0.236429 0.6807 0.0370332
6975 1 0.2605 0.710994 0.0358147
22975 1 0.2605 0.71099 0.0358147
4157 1 0.473458 0.683951 0.0383568
20157 1 0.473458 0.68395 0.0383568
1552 1 0.49799 0.669154 0.0423893
17552 1 0.49799 0.66915 0.0423893
2248 1 0.0183922 0.727157 0.0426365
18248 1 0.0183922 0.72716 0.0426365
2810 1 0.066229 0.744537 0.0377773
18810 1 0.066229 0.74454 0.0377773
1502 1 0.10923 0.767602 0.0442038
17502 1 0.10923 0.7676 0.0442038
3804 1 0.147263 0.724987 0.0444774
19804 1 0.147263 0.72499 0.0444774
1980 1 0.168875 0.752374 0.0331753
17980 1 0.168875 0.75237 0.0331753
2036 1 0.217074 0.741892 0.041543
18036 1 0.217074 0.74189 0.041543
7372 1 0.287907 0.758225 0.0438306
23372 1 0.287907 0.75823 0.0438306
3477 1 0.35847 0.761799 0.0380315
19477 1 0.35847 0.7618 0.0380315
3277 1 0.384108 0.745774 0.0420943
19277 1 0.384108 0.74577 0.0420943
1784 1 0.4084 0.7697 0.0437949
17784 1 0.4084 0.7697 0.0437949
313 1 0.430358 0.745902 0.0322657
16313 1 0.430358 0.7459 0.0322657
930 1 0.45529 0.750848 0.0338293
16930 1 0.45529 0.75085 0.0338293
2488 1 0.48886 0.760805 0.0333713
18488 1 0.48886 0.7608 0.0333713
1421 1 0.0205077 0.826799 0.0437976
17421 1 0.0205077 0.8268 0.0437976
7191 1 0.0430523 0.780461 0.0405227
23191 1 0.0430523 0.78046 0.0405227
790 1 0.0883585 0.812835 0.0358083
16790 1 0.0883585 0.81283 0.0358083
7026 1 0.131919 0.798054 0.036462
23026 1 0.131919 0.79805 0.036462
2160 1 0.19854 0.83089 0.0387196
18160 1 0.19854 0.83089 0.0387196
6223 1 0.240032 0.781385 0.0447922
22223 1 0.240032 0.78139 0.0447922
1898 1 0.260478 0.809441 0.0309359
17898 1 0.260478 0.80944 0.0309359
7886 2 0.30261 0.821993 0.0304348
23886 2 0.30261 0.82199 0.0304348
6277 1 0.337205 0.814298 0.0374861
22277 1 0.337205 0.8143 0.0374861
5919 1 0.0414735 0.880142 0.0393752
21919 1 0.0414735 0.88014 0.0393752
556 1 0.065327 0.850692 0.0380902
16556 1 0.065327 0.85069 0.0380902
4733 1 0.113216 0.863996 0.0384603
20733 1 0.113216 0.864 0.0384603
2199 1 0.152467 0.856401 0.0342302
18199 1 0.152467 0.8564 0.0342302
4442 1 0.44455 0.837697 0.0404642
20442 1 0.44455 0.8377 0.0404642
6413 1 0.0190715 0.920128 0.0342943
22413 1 0.0190715 0.92013 0.0342943
5028 1 0.318053 0.922105 0.0424971
21028 1 0.318053 0.9221 0.0424971
1820 1 0.342115 0.912218 0.0356782
17820 1 0.342115 0.91222 0.0356782
816 1 0.0423875 0.993838 0.0356892
16816 1 0.0423875 0.99384 0.0356892
1189 1 0.0650147 0.952635 0.0411869
17189 1 0.0650147 0.95264 0.0411869
1406 1 0.124507 0.952713 0.0359016
17406 1 0.124507 0.95271 0.0359016
1696 1 0.15189 0.953718 0.0404444
17696 1 0.15189 0.95372 0.0404444
3790 1 0.231636 0.9484 0.0382093
19790 1 0.231636 0.9484 0.0382093
7989 2 0.355518 0.995187 0.0314009
23989 2 0.355518 0.99519 0.0314009
7440 1 0.43761 0.995751 0.0312534
23440 1 0.43761 0.99575 0.0312534
5924 1 0.497248 0.960276 0.0416883
21924 1 0.497248 0.96028 0.0416883
2354 1 0.136908 0.0039156 0.057172
18354 1 0.136908 0.00392 0.057172
5412 1 0.164805 0.0464106 0.0460388
21412 1 0.164805 0.04641 0.0460388
5105 1 0.188092 0.011211 0.0501973
21105 1 0.188092 0.01121 0.0501973
2587 1 0.219812 0.0416119 0.0508586
18587 1 0.219812 0.04161 0.0508586
1095 1 0.287345 0.0398902 0.0505258
17095 1 0.287345 0.03989 0.0505258
4795 1 0.394995 0.0308463 0.0587828
20795 1 0.394995 0.03085 0.0587828
972 1 0.422233 0.0295514 0.0523557
16972 1 0.422233 0.02955 0.0523557
2917 1 0.446025 0.0193764 0.0601621
18917 1 0.446025 0.01938 0.0601621
590 1 0.475873 0.0108903 0.0532907
16590 1 0.475873 0.01089 0.0532907
1088 1 0.020489 0.0955509 0.0544703
17088 1 0.020489 0.09555 0.0544703
475 1 0.0444633 0.0842324 0.0470664
16475 1 0.0444633 0.08423 0.0470664
3407 1 0.097578 0.0984913 0.0459522
19407 1 0.097578 0.09849 0.0459522
883 1 0.144497 0.0984364 0.0530974
16883 1 0.144497 0.09844 0.0530974
523 1 0.30751 0.100623 0.0498578
16523 1 0.30751 0.10062 0.0498578
3523 1 0.37127 0.0712531 0.0478799
19523 1 0.37127 0.07125 0.0478799
1905 1 0.461172 0.0917706 0.0513174
17905 1 0.461172 0.09177 0.0513174
6090 1 0.497868 0.0560802 0.0493398
22090 1 0.497868 0.05608 0.0493398
1719 1 0.180537 0.120823 0.0522286
17719 1 0.180537 0.12082 0.0522286
7618 1 0.206357 0.119037 0.0598516
23618 1 0.206357 0.11904 0.0598516
7575 1 0.257705 0.121833 0.0559535
23575 1 0.257705 0.12183 0.0559535
1917 1 0.285053 0.137159 0.0563836
17917 1 0.285053 0.13716 0.0563836
577 1 0.356605 0.139159 0.0597173
16577 1 0.356605 0.13916 0.0597173
6324 1 0.00593483 0.176656 0.0520934
22324 1 0.00593483 0.17666 0.0520934
6283 1 0.0837735 0.171965 0.0565665
22283 1 0.0837735 0.17196 0.0565665
2104 1 0.120884 0.210814 0.0589179
18104 1 0.120884 0.21081 0.0589179
6633 1 0.145771 0.22016 0.0593314
22633 1 0.145771 0.22016 0.0593314
5706 1 0.198773 0.202907 0.047618
21706 1 0.198773 0.20291 0.047618
1752 1 0.223573 0.186536 0.0518406
17752 1 0.223573 0.18654 0.0518406
2612 1 0.247114 0.221465 0.0470849
18612 1 0.247114 0.22146 0.0470849
1794 1 0.327985 0.181009 0.052172
17794 1 0.327985 0.18101 0.052172
3211 1 0.0291243 0.253364 0.0604555
19211 1 0.0291243 0.25336 0.0604555
291 1 0.0985338 0.252704 0.0547256
16291 1 0.0985338 0.2527 0.0547256
3620 1 0.177883 0.241136 0.0590091
19620 1 0.177883 0.24114 0.0590091
4248 1 0.348455 0.233656 0.058314
20248 1 0.348455 0.23366 0.058314
3063 1 0.116692 0.327535 0.0603461
19063 1 0.116692 0.32753 0.0603461
4743 1 0.199176 0.302884 0.0469937
20743 1 0.199176 0.30288 0.0469937
7563 1 0.23038 0.289953 0.0548093
23563 1 0.23038 0.28995 0.0548093
1209 1 0.262163 0.304003 0.0471138
17209 1 0.262163 0.304 0.0471138
4948 1 0.286523 0.32953 0.0557277
20948 1 0.286523 0.32953 0.0557277
1020 1 0.333738 0.312703 0.0537654
17020 1 0.333738 0.3127 0.0537654
691 1 0.358488 0.316897 0.0480612
16691 1 0.358488 0.3169 0.0480612
990 1 0.387593 0.293876 0.0568212
16990 1 0.387593 0.29388 0.0568212
6284 1 0.412513 0.286103 0.0582851
22284 1 0.412513 0.2861 0.0582851
338 1 0.475125 0.311802 0.0563965
16338 1 0.475125 0.3118 0.0563965
3414 1 0.021951 0.338663 0.0482465
19414 1 0.021951 0.33866 0.0482465
3385 1 0.0678767 0.340263 0.0588155
19385 1 0.0678767 0.34026 0.0588155
7506 1 0.177562 0.365926 0.046315
23506 1 0.177562 0.36593 0.046315
511 1 0.052694 0.428972 0.0461836
16511 1 0.052694 0.42897 0.0461836
1043 1 0.101689 0.391233 0.0473828
17043 1 0.101689 0.39123 0.0473828
4188 1 0.130259 0.398483 0.0481918
20188 1 0.130259 0.39848 0.0481918
7554 1 0.232575 0.43427 0.0537259
23554 1 0.232575 0.43427 0.0537259
2131 1 0.433088 0.40567 0.0505564
18131 1 0.433088 0.40567 0.0505564
4984 1 0.00681367 0.483477 0.0573447
20984 1 0.00681367 0.48348 0.0573447
3943 1 0.11329 0.479922 0.046839
19943 1 0.11329 0.47992 0.046839
4440 1 0.166039 0.471462 0.048726
20440 1 0.166039 0.47146 0.048726
6351 1 0.276775 0.458284 0.0474729
22351 1 0.276775 0.45828 0.0474729
3621 1 0.319692 0.488166 0.0456733
19621 1 0.319692 0.48817 0.0456733
2448 1 0.049484 0.520008 0.0592209
18448 1 0.049484 0.52001 0.0592209
4130 1 0.180748 0.548362 0.0554748
20130 1 0.180748 0.54836 0.0554748
1036 1 0.203852 0.52362 0.0476282
17036 1 0.203852 0.52362 0.0476282
2605 1 0.101139 0.605275 0.0531861
18605 1 0.101139 0.60527 0.0531861
2275 1 0.130991 0.57235 0.0538246
18275 1 0.130991 0.57235 0.0538246
377 1 0.159235 0.591373 0.0478483
16377 1 0.159235 0.59137 0.0478483
211 1 0.235187 0.608917 0.0557666
16211 1 0.235187 0.60892 0.0557666
5086 1 0.303888 0.562536 0.0524747
21086 1 0.303888 0.56254 0.0524747
284 1 0.455355 0.581841 0.0468575
16284 1 0.455355 0.58184 0.0468575
1815 1 0.479563 0.600071 0.0514206