ITEM: TIMESTEP
0
ITEM: NUMBER OF ATOMS
0
ITEM: BOX BOUNDS fm fm fm
-3.0000000000000000e+01 3.0000000000000000e+01
-3.0000000000000000e+01 3.0000000000000000e+01
0.0000000000000000e+00 6.0000000000000000e+01
ITEM: ATOMS id type xs ys zs
ITEM: TIMESTEP
1000
ITEM: NUMBER OF ATOMS
4
ITEM: BOX BOUNDS fm fm fm
-3.0000000000000000e+01 3.0000000000000000e+01
-3.0000000000000000e+01 3.0000000000000000e+01
0.0000000000000000e+00 6.0000000000000000e+01
ITEM: ATOMS id type xs ys zs
1 1 0.459553 0.476245 0.963006
2 2 0.500813 0.525415 0.952596
3 1 0.534147 0.534164 0.958069
4 2 0.519919 0.453321 0.979648
ITEM: TIMESTEP
2000
ITEM: NUMBER OF ATOMS
4
ITEM: BOX BOUNDS fm fm fm
-3.0000000000000000e+01 3.0000000000000000e+01
-3.0000000000000000e+01 3.0000000000000000e+01
0.0000000000000000e+00 6.0000000000000000e+01
ITEM: ATOMS id type xs ys zs
2 2 0.500813 0.525415 0.949312
3 1 0.534147 0.534164 0.955084
1 1 0.459553 0.476245 0.960319
4 2 0.519919 0.453321 0.978456
ITEM: TIMESTEP
3000
ITEM: NUMBER OF ATOMS
4
ITEM: BOX BOUNDS fm fm fm
-3.0000000000000000e+01 3.0000000000000000e+01
-3.0000000000000000e+01 3.0000000000000000e+01
0.0000000000000000e+00 6.0000000000000000e+01
ITEM: ATOMS id type xs ys zs
2 2 0.500813 0.525415 0.945861
3 1 0.534147 0.534164 0.951931
1 1 0.459553 0.476245 0.957466
4 2 0.519919 0.453321 0.977097
ITEM: TIMESTEP
4000
ITEM: NUMBER OF ATOMS
4
ITEM: BOX BOUNDS fm fm fm
-3.0000000000000000e+01 3.0000000000000000e+01
-3.0000000000000000e+01 3.0000000000000000e+01
0.0000000000000000e+00 6.0000000000000000e+01
ITEM: ATOMS id type xs ys zs
2 2 0.500813 0.525415 0.942243
1 1 0.459553 0.476245 0.954446
3 1 0.534147 0.534164 0.948613
4 2 0.519919 0.453321 0.975572
ITEM: TIMESTEP
5000
ITEM: NUMBER OF ATOMS
4
ITEM: BOX BOUNDS fm fm fm
-3.0000000000000000e+01 3.0000000000000000e+01
-3.0000000000000000e+01 3.0000000000000000e+01
0.0000000000000000e+00 6.0000000000000000e+01
ITEM: ATOMS id type xs ys zs
2 2 0.500813 0.525415 0.938459
3 1 0.534147 0.534164 0.945127
1 1 0.459553 0.476245 0.95126
4 2 0.519919 0.453321 0.97388
ITEM: TIMESTEP
6000
ITEM: NUMBER OF ATOMS
4
ITEM: BOX BOUNDS fm fm fm
-3.0000000000000000e+01 3.0000000000000000e+01
-3.0000000000000000e+01 3.0000000000000000e+01
0.0000000000000000e+00 6.0000000000000000e+01
ITEM: ATOMS id type xs ys zs
2 2 0.500813 0.525415 0.934508
3 1 0.534147 0.534164 0.941475
1 1 0.459553 0.476245 0.947907
4 2 0.519919 0.453321 0.972022
ITEM: TIMESTEP
7000
ITEM: NUMBER OF ATOMS
4
ITEM: BOX BOUNDS fm fm fm
-3.0000000000000000e+01 3.0000000000000000e+01
-3.0000000000000000e+01 3.0000000000000000e+01
0.0000000000000000e+00 6.0000000000000000e+01
ITEM: ATOMS id type xs ys zs
2 2 0.500813 0.525415 0.93039
1 1 0.459553 0.476245 0.944387
3 1 0.534147 0.534164 0.937657
4 2 0.519919 0.453321 0.969997
ITEM: TIMESTEP
8000
ITEM: NUMBER OF ATOMS
4
ITEM: BOX BOUNDS fm fm fm
-3.0000000000000000e+01 3.0000000000000000e+01
-3.0000000000000000e+01 3.0000000000000000e+01
0.0000000000000000e+00 6.0000000000000000e+01
ITEM: ATOMS id type xs ys zs
2 2 0.500813 0.525415 0.926106
3 1 0.534147 0.534164 0.933671
1 1 0.459553 0.476245 0.940701
4 2 0.519919 0.453321 0.967805
ITEM: TIMESTEP
9000
ITEM: NUMBER OF ATOMS
4
ITEM: BOX BOUNDS fm fm fm
-3.0000000000000000e+01 3.0000000000000000e+01
-3.0000000000000000e+01 3.0000000000000000e+01
0.0000000000000000e+00 6.0000000000000000e+01
ITEM: ATOMS id type xs ys zs
2 2 0.500813 0.525415 0.921655
3 1 0.534147 0.534164 0.929519
1 1 0.459553 0.476245 0.936847
4 2 0.519919 0.453321 0.965447
ITEM: TIMESTEP
10000
ITEM: NUMBER OF ATOMS
4
ITEM: BOX BOUNDS fm fm fm
-3.0000000000000000e+01 3.0000000000000000e+01
-3.0000000000000000e+01 3.0000000000000000e+01
0.0000000000000000e+00 6.0000000000000000e+01
ITEM: ATOMS id type xs ys zs
2 2 0.500813 0.525415 0.917037
3 1 0.534147 0.534164 0.9252
1 1 0.459553 0.476245 0.932828
4 2 0.519919 0.453321 0.962921
ITEM: TIMESTEP
11000
ITEM: NUMBER OF ATOMS
4
ITEM: BOX BOUNDS fm fm fm
-3.0000000000000000e+01 3.0000000000000000e+01
-3.0000000000000000e+01 3.0000000000000000e+01
0.0000000000000000e+00 6.0000000000000000e+01
ITEM: ATOMS id type xs ys zs
2 2 0.500813 0.525415 0.912253
3 1 0.534147 0.534164 0.920715
1 1 0.459553 0.476245 0.928641
4 2 0.519919 0.453321 0.96023
ITEM: TIMESTEP
12000
ITEM: NUMBER OF ATOMS
4
ITEM: BOX BOUNDS fm fm fm
-3.0000000000000000e+01 3.0000000000000000e+01
-3.0000000000000000e+01 3.0000000000000000e+01
0.0000000000000000e+00 6.0000000000000000e+01
ITEM: ATOMS id type xs ys zs
2 2 0.500813 0.525415 0.907302
3 1 0.534147 0.534164 0.916063
1 1 0.459553 0.476245 0.924288
4 2 0.519919 0.453321 0.957371
ITEM: TIMESTEP
13000
ITEM: NUMBER OF ATOMS
4
ITEM: BOX BOUNDS fm fm fm
-3.0000000000000000e+01 3.0000000000000000e+01
-3.0000000000000000e+01 3.0000000000000000e+01
0.0000000000000000e+00 6.0000000000000000e+01
ITEM: ATOMS id type xs ys zs
2 2 0.500813 0.525415 0.902184
3 1 0.534147 0.534164 0.911244
1 1 0.459553 0.476245 0.919768
4 2 0.519919 0.453321 0.954346
ITEM: TIMESTEP
14000
ITEM: NUMBER OF ATOMS
4
ITEM: BOX BOUNDS fm fm fm
-3.0000000000000000e+01 3.0000000000000000e+01
-3.0000000000000000e+01 3.0000000000000000e+01
0.0000000000000000e+00 6.0000000000000000e+01
ITEM: ATOMS id type xs ys zs
2 2 0.500813 0.525415 0.8969
3 1 0.534147 0.534164 0.906259
1 1 0.459553 0.476245 0.915082
4 2 0.519919 0.453321 0.951154
ITEM: TIMESTEP
15000
ITEM: NUMBER OF ATOMS
4
ITEM: BOX BOUNDS fm fm fm
-3.0000000000000000e+01 3.0000000000000000e+01
-3.0000000000000000e+01 3.0000000000000000e+01
0.0000000000000000e+00 6.0000000000000000e+01
ITEM: ATOMS id type xs ys zs
2 2 0.500813 0.525415 0.891449
3 1 0.534147 0.534164 0.901107
1 1 0.459553 0.476245 0.910229
4 2 0.519919 0.453321 0.947796
ITEM: TIMESTEP
16000
ITEM: NUMBER OF ATOMS
4
ITEM: BOX BOUNDS fm fm fm
-3.0000000000000000e+01 3.0000000000000000e+01
-3.0000000000000000e+01 3.0000000000000000e+01
0.0000000000000000e+00 6.0000000000000000e+01
ITEM: ATOMS id type xs ys zs
2 2 0.500813 0.525415 0.885831
1 1 0.459553 0.476245 0.905209
3 1 0.534147 0.534164 0.895788
4 2 0.519919 0.453321 0.944271
ITEM: TIMESTEP
17000
ITEM: NUMBER OF ATOMS
4
ITEM: BOX BOUNDS fm fm fm
-3.0000000000000000e+01 3.0000000000000000e+01
-3.0000000000000000e+01 3.0000000000000000e+01
0.0000000000000000e+00 6.0000000000000000e+01
ITEM: ATOMS id type xs ys zs
2 2 0.500813 0.525415 0.880047
3 1 0.534147 0.534164 0.890303
1 1 0.459553 0.476245 0.900022
4 2 0.519919 0.453321 0.940579
ITEM: TIMESTEP
18000
ITEM: NUMBER OF ATOMS
4
ITEM: BOX BOUNDS fm fm fm
-3.0000000000000000e+01 3.0000000000000000e+01
-3.0000000000000000e+01 3.0000000000000000e+01
0.0000000000000000e+00 6.0000000000000000e+01
ITEM: ATOMS id type xs ys zs
2 2 0.500813 0.525415 0.874096
3 1 0.534147 0.534164 0.884651
1 1 0.459553 0.476245 0.894669
4 2 0.519919 0.453321 0.93672
ITEM: TIMESTEP
19000
ITEM: NUMBER OF ATOMS
4
ITEM: BOX BOUNDS fm fm fm
-3.0000000000000000e+01 3.0000000000000000e+01
-3.0000000000000000e+01 3.0000000000000000e+01
0.0000000000000000e+00 6.0000000000000000e+01
ITEM: ATOMS id type xs ys zs
2 2 0.500813 0.525415 0.867978
3 1 0.534147 0.534164 0.878832
1 1 0.459553 0.476245 0.88915
4 2 0.519919 0.453321 0.932695
ITEM: TIMESTEP
20000
ITEM: NUMBER OF ATOMS
4
ITEM: BOX BOUNDS fm fm fm
-3.0000000000000000e+01 3.0000000000000000e+01
-3.0000000000000000e+01 3.0000000000000000e+01
0.0000000000000000e+00 6.0000000000000000e+01
ITEM: ATOMS id type xs ys zs
2 2 0.500813 0.525415 0.861694
3 1 0.534147 0.534164 0.872847
1 1 0.459553 0.476245 0.883463
4 2 0.519919 0.453321 0.928503
ITEM: TIMESTEP
21000
ITEM: NUMBER OF ATOMS
4
ITEM: BOX BOUNDS fm fm fm
-3.0000000000000000e+01 3.0000000000000000e+01
-3.0000000000000000e+01 3.0000000000000000e+01
0.0000000000000000e+00 6.0000000000000000e+01
ITEM: ATOMS id type xs ys zs
2 2 0.500813 0.525415 0.855243
3 1 0.534147 0.534164 0.866694
1 1 0.459553 0.476245 0.87761
4 2 0.519919 0.453321 0.924145
ITEM: TIMESTEP
22000
ITEM: NUMBER OF ATOMS
4
ITEM: BOX BOUNDS fm fm fm
-3.0000000000000000e+01 3.0000000000000000e+01
-3.0000000000000000e+01 3.0000000000000000e+01
0.0000000000000000e+00 6.0000000000000000e+01
ITEM: ATOMS id type xs ys zs
2 2 0.500813 0.525415 0.848625
3 1 0.534147 0.534164 0.860376
1 1 0.459553 0.476245 0.87159
4 2 0.519919 0.453321 0.91962
ITEM: TIMESTEP
23000
ITEM: NUMBER OF ATOMS
4
ITEM: BOX BOUNDS fm fm fm
-3.0000000000000000e+01 3.0000000000000000e+01
-3.0000000000000000e+01 3.0000000000000000e+01
0.0000000000000000e+00 6.0000000000000000e+01
ITEM: ATOMS id type xs ys zs
2 2 0.500813 0.525415 0.841841
3 1 0.534147 0.534164 0.85389
1 1 0.459553 0.476245 0.865404
4 2 0.519919 0.453321 0.914928
ITEM: TIMESTEP
24000
ITEM: NUMBER OF ATOMS
4
ITEM: BOX BOUNDS fm fm fm
-3.0000000000000000e+01 3.0000000000000000e+01
-3.0000000000000000e+01 3.0000000000000000e+01
0.0000000000000000e+00 6.0000000000000000e+01
ITEM: ATOMS id type xs ys zs
2 2 0.500813 0.525415 0.83489
3 1 0.534147 0.534164 0.847238
1 1 0.459553 0.476245 0.859051
4 2 0.519919 0.453321 0.910069
ITEM: TIMESTEP
25000
ITEM: NUMBER OF ATOMS
4
ITEM: BOX BOUNDS fm fm fm
-3.0000000000000000e+01 3.0000000000000000e+01
-3.0000000000000000e+01 3.0000000000000000e+01
0.0000000000000000e+00 6.0000000000000000e+01
ITEM: ATOMS id type xs ys zs
2 2 0.500813 0.525415 0.827772
3 1 0.534147 0.534164 0.84042
1 1 0.459553 0.476245 0.852531
4 2 0.519919 0.453321 0.905044
ITEM: TIMESTEP
26000
ITEM: NUMBER OF ATOMS
4
ITEM: BOX BOUNDS fm fm fm
-3.0000000000000000e+01 3.0000000000000000e+01
-3.0000000000000000e+01 3.0000000000000000e+01
0.0000000000000000e+00 6.0000000000000000e+01
ITEM: ATOMS id type xs ys zs
2 2 0.500813 0.525415 0.820488
3 1 0.534147 0.534164 0.833434
1 1 0.459553 0.476245 0.845844
4 2 0.519919 0.453321 0.899853
ITEM: TIMESTEP
27000
ITEM: NUMBER OF ATOMS
4
ITEM: BOX BOUNDS fm fm fm
-3.0000000000000000e+01 3.0000000000000000e+01
-3.0000000000000000e+01 3.0000000000000000e+01
0.0000000000000000e+00 6.0000000000000000e+01
ITEM: ATOMS id type xs ys zs
2 2 0.500813 0.525415 0.813037
3 1 0.534147 0.534164 0.826282
1 1 0.459553 0.476245 0.838991
4 2 0.519919 0.453321 0.894494
ITEM: TIMESTEP
28000
ITEM: NUMBER OF ATOMS
4
ITEM: BOX BOUNDS fm fm fm
-3.0000000000000000e+01 3.0000000000000000e+01
-3.0000000000000000e+01 3.0000000000000000e+01
0.0000000000000000e+00 6.0000000000000000e+01
ITEM: ATOMS id type xs ys zs
2 2 0.500813 0.525415 0.805419
3 1 0.534147 0.534164 0.818963
1 1 0.459553 0.476245 0.831971
4 2 0.519919 0.453321 0.888969
ITEM: TIMESTEP
29000
ITEM: NUMBER OF ATOMS
4
ITEM: BOX BOUNDS fm fm fm
-3.0000000000000000e+01 3.0000000000000000e+01
-3.0000000000000000e+01 3.0000000000000000e+01
0.0000000000000000e+00 6.0000000000000000e+01
ITEM: ATOMS id type xs ys zs
2 2 0.500813 0.525415 0.797635
3 1 0.534147 0.534164 0.811478
1 1 0.459553 0.476245 0.824785
4 2 0.519919 0.453321 0.883277
ITEM: TIMESTEP
30000
ITEM: NUMBER OF ATOMS
4
ITEM: BOX BOUNDS fm fm fm
-3.0000000000000000e+01 3.0000000000000000e+01
-3.0000000000000000e+01 3.0000000000000000e+01
0.0000000000000000e+00 6.0000000000000000e+01
ITEM: ATOMS id type xs ys zs
2 2 0.500813 0.525415 0.789684
3 1 0.534147 0.534164 0.803826
1 1 0.459553 0.476245 0.817432
4 2 0.519919 0.453321 0.877419
ITEM: TIMESTEP
31000
ITEM: NUMBER OF ATOMS
4
ITEM: BOX BOUNDS fm fm fm
-3.0000000000000000e+01 3.0000000000000000e+01
-3.0000000000000000e+01 3.0000000000000000e+01
0.0000000000000000e+00 6.0000000000000000e+01
ITEM: ATOMS id type xs ys zs
2 2 0.500813 0.525415 0.781566
3 1 0.534147 0.534164 0.796007
1 1 0.459553 0.476245 0.809912
4 2 0.519919 0.453321 0.871394
ITEM: TIMESTEP
32000
ITEM: NUMBER OF ATOMS
4
ITEM: BOX BOUNDS fm fm fm
-3.0000000000000000e+01 3.0000000000000000e+01
-3.0000000000000000e+01 3.0000000000000000e+01
0.0000000000000000e+00 6.0000000000000000e+01
ITEM: ATOMS id type xs ys zs
2 2 0.500813 0.525415 0.773282
3 1 0.534147 0.534164 0.788022
1 1 0.459553 0.476245 0.802226
4 2 0.519919 0.453321 0.865202
ITEM: TIMESTEP
33000
ITEM: NUMBER OF ATOMS
4
ITEM: BOX BOUNDS fm fm fm
-3.0000000000000000e+01 3.0000000000000000e+01
-3.0000000000000000e+01 3.0000000000000000e+01
0.0000000000000000e+00 6.0000000000000000e+01
ITEM: ATOMS id type xs ys zs
2 2 0.500813 0.525415 0.764831
3 1 0.534147 0.534164 0.77987
1 1 0.459553 0.476245 0.794372
4 2 0.519919 0.453321 0.858843
ITEM: TIMESTEP
34000
ITEM: NUMBER OF ATOMS
4
ITEM: BOX BOUNDS fm fm fm
-3.0000000000000000e+01 3.0000000000000000e+01
-3.0000000000000000e+01 3.0000000000000000e+01
0.0000000000000000e+00 6.0000000000000000e+01
ITEM: ATOMS id type xs ys zs
2 2 0.500813 0.525415 0.756213
3 1 0.534147 0.534164 0.771551
1 1 0.459553 0.476245 0.786353
4 2 0.519919 0.453321 0.852318
ITEM: TIMESTEP
35000
ITEM: NUMBER OF ATOMS
4
ITEM: BOX BOUNDS fm fm fm
-3.0000000000000000e+01 3.0000000000000000e+01
-3.0000000000000000e+01 3.0000000000000000e+01
0.0000000000000000e+00 6.0000000000000000e+01
ITEM: ATOMS id type xs ys zs
2 2 0.500813 0.525415 0.747429
3 1 0.534147 0.534164 0.763066
1 1 0.459553 0.476245 0.778166
4 2 0.519919 0.453321 0.845626
ITEM: TIMESTEP
36000
ITEM: NUMBER OF ATOMS
4
ITEM: BOX BOUNDS fm fm fm
-3.0000000000000000e+01 3.0000000000000000e+01
-3.0000000000000000e+01 3.0000000000000000e+01
0.0000000000000000e+00 6.0000000000000000e+01
ITEM: ATOMS id type xs ys zs
2 2 0.500813 0.525415 0.738478
3 1 0.534147 0.534164 0.754414
1 1 0.459553 0.476245 0.769813
4 2 0.519919 0.453321 0.838768
ITEM: TIMESTEP
37000
ITEM: NUMBER OF ATOMS
4
ITEM: BOX BOUNDS fm fm fm
-3.0000000000000000e+01 3.0000000000000000e+01
-3.0000000000000000e+01 3.0000000000000000e+01
0.0000000000000000e+00 6.0000000000000000e+01
ITEM: ATOMS id type xs ys zs
2 2 0.500813 0.525415 0.72936
3 1 0.534147 0.534164 0.745595
1 1 0.459553 0.476245 0.761293
4 2 0.519919 0.453321 0.831743
ITEM: TIMESTEP
38000
ITEM: NUMBER OF ATOMS
4
ITEM: BOX BOUNDS fm fm fm
-3.0000000000000000e+01 3.0000000000000000e+01
-3.0000000000000000e+01 3.0000000000000000e+01
0.0000000000000000e+00 6.0000000000000000e+01
ITEM: ATOMS id type xs ys zs
2 2 0.500813 0.525415 0.720076
3 1 0.534147 0.534164 0.73661
1 1 0.459553 0.476245 0.752607
4 2 0.519919 0.453321 0.824551
ITEM: TIMESTEP
39000
ITEM: NUMBER OF ATOMS
4
ITEM: BOX BOUNDS fm fm fm
-3.0000000000000000e+01 3.0000000000000000e+01
-3.0000000000000000e+01 3.0000000000000000e+01
0.0000000000000000e+00 6.0000000000000000e+01
ITEM: ATOMS id type xs ys zs
2 2 0.500813 0.525415 0.710625
3 1 0.534147 0.534164 0.727457
1 1 0.459553 0.476245 0.743754
4 2 0.519919 0.453321 0.817192
ITEM: TIMESTEP
40000
ITEM: NUMBER OF ATOMS
4
ITEM: BOX BOUNDS fm fm fm
-3.0000000000000000e+01 3.0000000000000000e+01
-3.0000000000000000e+01 3.0000000000000000e+01
0.0000000000000000e+00 6.0000000000000000e+01
ITEM: ATOMS id type xs ys zs
2 2 0.500813 0.525415 0.701007
3 1 0.534147 0.534164 0.718139
1 1 0.459553 0.476245 0.734734
4 2 0.519919 0.453321 0.809667
ITEM: TIMESTEP
41000
ITEM: NUMBER OF ATOMS
4
ITEM: BOX BOUNDS fm fm fm
-3.0000000000000000e+01 3.0000000000000000e+01
-3.0000000000000000e+01 3.0000000000000000e+01
0.0000000000000000e+00 6.0000000000000000e+01
ITEM: ATOMS id type xs ys zs
2 2 0.500813 0.525415 0.691223
3 1 0.534147 0.534164 0.708653
1 1 0.459553 0.476245 0.725547
4 2 0.519919 0.453321 0.801975
ITEM: TIMESTEP
42000
ITEM: NUMBER OF ATOMS
4
ITEM: BOX BOUNDS fm fm fm
-3.0000000000000000e+01 3.0000000000000000e+01
-3.0000000000000000e+01 3.0000000000000000e+01
0.0000000000000000e+00 6.0000000000000000e+01
ITEM: ATOMS id type xs ys zs
2 2 0.500813 0.525415 0.681272
3 1 0.534147 0.534164 0.699001
1 1 0.459553 0.476245 0.716194
4 2 0.519919 0.453321 0.794117
ITEM: TIMESTEP
43000
ITEM: NUMBER OF ATOMS
4
ITEM: BOX BOUNDS fm fm fm
-3.0000000000000000e+01 3.0000000000000000e+01
-3.0000000000000000e+01 3.0000000000000000e+01
0.0000000000000000e+00 6.0000000000000000e+01
ITEM: ATOMS id type xs ys zs
2 2 0.500813 0.525415 0.671154
3 1 0.534147 0.534164 0.689183
1 1 0.459553 0.476245 0.706675
4 2 0.519919 0.453321 0.786092
ITEM: TIMESTEP
44000
ITEM: NUMBER OF ATOMS
4
ITEM: BOX BOUNDS fm fm fm
-3.0000000000000000e+01 3.0000000000000000e+01
-3.0000000000000000e+01 3.0000000000000000e+01
0.0000000000000000e+00 6.0000000000000000e+01
ITEM: ATOMS id type xs ys zs
2 2 0.500813 0.525415 0.66087
3 1 0.534147 0.534164 0.679197
1 1 0.459553 0.476245 0.696988
4 2 0.519919 0.453321 0.7779
ITEM: TIMESTEP
45000
ITEM: NUMBER OF ATOMS
4
ITEM: BOX BOUNDS fm fm fm
-3.0000000000000000e+01 3.0000000000000000e+01
-3.0000000000000000e+01 3.0000000000000000e+01
0.0000000000000000e+00 6.0000000000000000e+01
ITEM: ATOMS id type xs ys zs
2 2 0.500813 0.525415 0.650419
3 1 0.534147 0.534164 0.669045
1 1 0.459553 0.476245 0.687135
4 2 0.519919 0.453321 0.769542
ITEM: TIMESTEP
46000
ITEM: NUMBER OF ATOMS
4
ITEM: BOX BOUNDS fm fm fm
-3.0000000000000000e+01 3.0000000000000000e+01
-3.0000000000000000e+01 3.0000000000000000e+01
0.0000000000000000e+00 6.0000000000000000e+01
ITEM: ATOMS id type xs ys zs
2 2 0.500813 0.525415 0.639802
3 1 0.534147 0.534164 0.658726
1 1 0.459553 0.476245 0.677115
4 2 0.519919 0.453321 0.761016
ITEM: TIMESTEP
47000
ITEM: NUMBER OF ATOMS
4
ITEM: BOX BOUNDS fm fm fm
-3.0000000000000000e+01 3.0000000000000000e+01
-3.0000000000000000e+01 3.0000000000000000e+01
0.0000000000000000e+00 6.0000000000000000e+01
ITEM: ATOMS id type xs ys zs
2 2 0.500813 0.525415 0.629017
3 1 0.534147 0.534164 0.648241
1 1 0.459553 0.476245 0.666929
4 2 0.519919 0.453321 0.752325
ITEM: TIMESTEP
48000
ITEM: NUMBER OF ATOMS
4
ITEM: BOX BOUNDS fm fm fm
-3.0000000000000000e+01 3.0000000000000000e+01
-3.0000000000000000e+01 3.0000000000000000e+01
0.0000000000000000e+00 6.0000000000000000e+01
ITEM: ATOMS id type xs ys zs
2 2 0.500813 0.525415 0.618066
3 1 0.534147 0.534164 0.637589
1 1 0.459553 0.476245 0.656576
4 2 0.519919 0.453321 0.743466
ITEM: TIMESTEP
49000
ITEM: NUMBER OF ATOMS
4
ITEM: BOX BOUNDS fm fm fm
-3.0000000000000000e+01 3.0000000000000000e+01
-3.0000000000000000e+01 3.0000000000000000e+01
0.0000000000000000e+00 6.0000000000000000e+01
ITEM: ATOMS id type xs ys zs
2 2 0.500813 0.525415 0.606949
3 1 0.534147 0.534164 0.62677
1 1 0.459553 0.476245 0.646056
4 2 0.519919 0.453321 0.734441
ITEM: TIMESTEP
50000
ITEM: NUMBER OF ATOMS
4
ITEM: BOX BOUNDS fm fm fm
-3.0000000000000000e+01 3.0000000000000000e+01
-3.0000000000000000e+01 3.0000000000000000e+01
0.0000000000000000e+00 6.0000000000000000e+01
ITEM: ATOMS id type xs ys zs
2 2 0.500813 0.525415 0.595664
3 1 0.534147 0.534164 0.615785
1 1 0.459553 0.476245 0.635369
4 2 0.519919 0.453321 0.725249
ITEM: TIMESTEP
51000
ITEM: NUMBER OF ATOMS
4
ITEM: BOX BOUNDS fm fm fm
-3.0000000000000000e+01 3.0000000000000000e+01
-3.0000000000000000e+01 3.0000000000000000e+01
0.0000000000000000e+00 6.0000000000000000e+01
ITEM: ATOMS id type xs ys zs
2 2 0.500813 0.525415 0.584213
3 1 0.534147 0.534164 0.604633
1 1 0.459553 0.476245 0.624516
4 2 0.519919 0.453321 0.715891
ITEM: TIMESTEP
52000
ITEM: NUMBER OF ATOMS
4
ITEM: BOX BOUNDS fm fm fm
-3.0000000000000000e+01 3.0000000000000000e+01
-3.0000000000000000e+01 3.0000000000000000e+01
0.0000000000000000e+00 6.0000000000000000e+01
ITEM: ATOMS id type xs ys zs
2 2 0.500813 0.525415 0.572596
3 1 0.534147 0.534164 0.593314
1 1 0.459553 0.476245 0.613496
4 2 0.519919 0.453321 0.706366
ITEM: TIMESTEP
53000
ITEM: NUMBER OF ATOMS
4
ITEM: BOX BOUNDS fm fm fm
-3.0000000000000000e+01 3.0000000000000000e+01
-3.0000000000000000e+01 3.0000000000000000e+01
0.0000000000000000e+00 6.0000000000000000e+01
ITEM: ATOMS id type xs ys zs
2 2 0.500813 0.525415 0.560811
3 1 0.534147 0.534164 0.581829
1 1 0.459553 0.476245 0.60231
4 2 0.519919 0.453321 0.696674
ITEM: TIMESTEP
54000
ITEM: NUMBER OF ATOMS
4
ITEM: BOX BOUNDS fm fm fm
-3.0000000000000000e+01 3.0000000000000000e+01
-3.0000000000000000e+01 3.0000000000000000e+01
0.0000000000000000e+00 6.0000000000000000e+01
ITEM: ATOMS id type xs ys zs
2 2 0.500813 0.525415 0.54886
3 1 0.534147 0.534164 0.570177
1 1 0.459553 0.476245 0.590957
4 2 0.519919 0.453321 0.686815
ITEM: TIMESTEP
55000
ITEM: NUMBER OF ATOMS
4
ITEM: BOX BOUNDS fm fm fm
-3.0000000000000000e+01 3.0000000000000000e+01
-3.0000000000000000e+01 3.0000000000000000e+01
0.0000000000000000e+00 6.0000000000000000e+01
ITEM: ATOMS id type xs ys zs
2 2 0.500813 0.525415 0.536743
3 1 0.534147 0.534164 0.558358
1 1 0.459553 0.476245 0.579437
4 2 0.519919 0.453321 0.67679
ITEM: TIMESTEP
56000
ITEM: NUMBER OF ATOMS
4
ITEM: BOX BOUNDS fm fm fm
-3.0000000000000000e+01 3.0000000000000000e+01
-3.0000000000000000e+01 3.0000000000000000e+01
0.0000000000000000e+00 6.0000000000000000e+01
ITEM: ATOMS id type xs ys zs
2 2 0.500813 0.525415 0.524458
3 1 0.534147 0.534164 0.546373
1 1 0.459553 0.476245 0.567751
4 2 0.519919 0.453321 0.666598
ITEM: TIMESTEP
57000
ITEM: NUMBER OF ATOMS
4
ITEM: BOX BOUNDS fm fm fm
-3.0000000000000000e+01 3.0000000000000000e+01
-3.0000000000000000e+01 3.0000000000000000e+01
0.0000000000000000e+00 6.0000000000000000e+01
ITEM: ATOMS id type xs ys zs
2 2 0.500813 0.525415 0.512007
3 1 0.534147 0.534164 0.53422
1 1 0.459553 0.476245 0.555897
4 2 0.519919 0.453321 0.65624
ITEM: TIMESTEP
58000
ITEM: NUMBER OF ATOMS
4
ITEM: BOX BOUNDS fm fm fm
-3.0000000000000000e+01 3.0000000000000000e+01
-3.0000000000000000e+01 3.0000000000000000e+01
0.0000000000000000e+00 6.0000000000000000e+01
ITEM: ATOMS id type xs ys zs
2 2 0.500813 0.525415 0.49939
3 1 0.534147 0.534164 0.521902
1 1 0.459553 0.476245 0.543878
4 2 0.519919 0.453321 0.645715
ITEM: TIMESTEP
59000
ITEM: NUMBER OF ATOMS
4
ITEM: BOX BOUNDS fm fm fm
-3.0000000000000000e+01 3.0000000000000000e+01
-3.0000000000000000e+01 3.0000000000000000e+01
0.0000000000000000e+00 6.0000000000000000e+01
ITEM: ATOMS id type xs ys zs
2 2 0.500813 0.525415 0.486605
3 1 0.534147 0.534164 0.509416
1 1 0.459553 0.476245 0.531691
4 2 0.519919 0.453321 0.635023
ITEM: TIMESTEP
60000
ITEM: NUMBER OF ATOMS
4
ITEM: BOX BOUNDS fm fm fm
-3.0000000000000000e+01 3.0000000000000000e+01
-3.0000000000000000e+01 3.0000000000000000e+01
0.0000000000000000e+00 6.0000000000000000e+01
ITEM: ATOMS id type xs ys zs
2 2 0.500813 0.525415 0.473654
3 1 0.534147 0.534164 0.496764
1 1 0.459553 0.476245 0.519338
4 2 0.519919 0.453321 0.624164
ITEM: TIMESTEP
61000
ITEM: NUMBER OF ATOMS
4
ITEM: BOX BOUNDS fm fm fm
-3.0000000000000000e+01 3.0000000000000000e+01
-3.0000000000000000e+01 3.0000000000000000e+01
0.0000000000000000e+00 6.0000000000000000e+01
ITEM: ATOMS id type xs ys zs
2 2 0.500813 0.525415 0.460537
3 1 0.534147 0.534164 0.483946
1 1 0.459553 0.476245 0.506818
4 2 0.519919 0.453321 0.613139
ITEM: TIMESTEP
62000
ITEM: NUMBER OF ATOMS
4
ITEM: BOX BOUNDS fm fm fm
-3.0000000000000000e+01 3.0000000000000000e+01
-3.0000000000000000e+01 3.0000000000000000e+01
0.0000000000000000e+00 6.0000000000000000e+01
ITEM: ATOMS id type xs ys zs
2 2 0.500813 0.525415 0.447252
3 1 0.534147 0.534164 0.47096
1 1 0.459553 0.476245 0.494132
4 2 0.519919 0.453321 0.601948
ITEM: TIMESTEP
63000
ITEM: NUMBER OF ATOMS
4
ITEM: BOX BOUNDS fm fm fm
-3.0000000000000000e+01 3.0000000000000000e+01
-3.0000000000000000e+01 3.0000000000000000e+01
0.0000000000000000e+00 6.0000000000000000e+01
ITEM: ATOMS id type xs ys zs
2 2 0.500813 0.525415 0.433801
3 1 0.534147 0.534164 0.457808
1 1 0.459553 0.476245 0.481279
4 2 0.519919 0.453321 0.590589
ITEM: TIMESTEP
64000
ITEM: NUMBER OF ATOMS
4
ITEM: BOX BOUNDS fm fm fm
-3.0000000000000000e+01 3.0000000000000000e+01
-3.0000000000000000e+01 3.0000000000000000e+01
0.0000000000000000e+00 6.0000000000000000e+01
ITEM: ATOMS id type xs ys zs
2 2 0.500813 0.525415 0.420184
3 1 0.534147 0.534164 0.444489
1 1 0.459553 0.476245 0.468259
4 2 0.519919 0.453321 0.579064
ITEM: TIMESTEP
65000
ITEM: NUMBER OF ATOMS
4
ITEM: BOX BOUNDS fm fm fm
-3.0000000000000000e+01 3.0000000000000000e+01
-3.0000000000000000e+01 3.0000000000000000e+01
0.0000000000000000e+00 6.0000000000000000e+01
ITEM: ATOMS id type xs ys zs
2 2 0.500813 0.525415 0.406399
3 1 0.534147 0.534164 0.431004
1 1 0.459553 0.476245 0.455072
4 2 0.519919 0.453321 0.567372
ITEM: TIMESTEP
66000
ITEM: NUMBER OF ATOMS
4
ITEM: BOX BOUNDS fm fm fm
-3.0000000000000000e+01 3.0000000000000000e+01
-3.0000000000000000e+01 3.0000000000000000e+01
0.0000000000000000e+00 6.0000000000000000e+01
ITEM: ATOMS id type xs ys zs
2 2 0.500813 0.525415 0.392448
3 1 0.534147 0.534164 0.417352
1 1 0.459553 0.476245 0.441719
4 2 0.519919 0.453321 0.555514
ITEM: TIMESTEP
67000
ITEM: NUMBER OF ATOMS
4
ITEM: BOX BOUNDS fm fm fm
-3.0000000000000000e+01 3.0000000000000000e+01
-3.0000000000000000e+01 3.0000000000000000e+01
0.0000000000000000e+00 6.0000000000000000e+01
ITEM: ATOMS id type xs ys zs
2 2 0.500813 0.525415 0.378331
3 1 0.534147 0.534164 0.403533
1 1 0.459553 0.476245 0.4282
4 2 0.519919 0.453321 0.543489
ITEM: TIMESTEP
68000
ITEM: NUMBER OF ATOMS
4
ITEM: BOX BOUNDS fm fm fm
-3.0000000000000000e+01 3.0000000000000000e+01
-3.0000000000000000e+01 3.0000000000000000e+01
0.0000000000000000e+00 6.0000000000000000e+01
ITEM: ATOMS id type xs ys zs
2 2 0.500813 0.525415 0.364047
3 1 0.534147 0.534164 0.389548
1 1 0.459553 0.476245 0.414513
4 2 0.519919 0.453321 0.531297
ITEM: TIMESTEP
69000
ITEM: NUMBER OF ATOMS
4
ITEM: BOX BOUNDS fm fm fm
-3.0000000000000000e+01 3.0000000000000000e+01
-3.0000000000000000e+01 3.0000000000000000e+01
0.0000000000000000e+00 6.0000000000000000e+01
ITEM: ATOMS id type xs ys zs
2 2 0.500813 0.525415 0.349596
3 1 0.534147 0.534164 0.375396
1 1 0.459553 0.476245 0.40066
4 2 0.519919 0.453321 0.518938
ITEM: TIMESTEP
70000
ITEM: NUMBER OF ATOMS
4
ITEM: BOX BOUNDS fm fm fm
-3.0000000000000000e+01 3.0000000000000000e+01
-3.0000000000000000e+01 3.0000000000000000e+01
0.0000000000000000e+00 6.0000000000000000e+01
ITEM: ATOMS id type xs ys zs
2 2 0.500813 0.525415 0.334978
3 1 0.534147 0.534164 0.361077
1 1 0.459553 0.476245 0.38664
4 2 0.519919 0.453321 0.506413
ITEM: TIMESTEP
71000
ITEM: NUMBER OF ATOMS
4
ITEM: BOX BOUNDS fm fm fm
-3.0000000000000000e+01 3.0000000000000000e+01
-3.0000000000000000e+01 3.0000000000000000e+01
0.0000000000000000e+00 6.0000000000000000e+01
ITEM: ATOMS id type xs ys zs
2 2 0.500813 0.525415 0.320194
3 1 0.534147 0.534164 0.346592
1 1 0.459553 0.476245 0.372454
4 2 0.519919 0.453321 0.493721
ITEM: TIMESTEP
72000
ITEM: NUMBER OF ATOMS
4
ITEM: BOX BOUNDS fm fm fm
-3.0000000000000000e+01 3.0000000000000000e+01
-3.0000000000000000e+01 3.0000000000000000e+01
0.0000000000000000e+00 6.0000000000000000e+01
ITEM: ATOMS id type xs ys zs
2 2 0.500813 0.525415 0.305243
3 1 0.534147 0.534164 0.33194
1 1 0.459553 0.476245 0.358101
4 2 0.519919 0.453321 0.480863
ITEM: TIMESTEP
73000
ITEM: NUMBER OF ATOMS
4
ITEM: BOX BOUNDS fm fm fm
-3.0000000000000000e+01 3.0000000000000000e+01
-3.0000000000000000e+01 3.0000000000000000e+01
0.0000000000000000e+00 6.0000000000000000e+01
ITEM: ATOMS id type xs ys zs
2 2 0.500813 0.525415 0.290125
3 1 0.534147 0.534164 0.317121
1 1 0.459553 0.476245 0.343581
4 2 0.519919 0.453321 0.467838
ITEM: TIMESTEP
74000
ITEM: NUMBER OF ATOMS
4
ITEM: BOX BOUNDS fm fm fm
-3.0000000000000000e+01 3.0000000000000000e+01
-3.0000000000000000e+01 3.0000000000000000e+01
0.0000000000000000e+00 6.0000000000000000e+01
ITEM: ATOMS id type xs ys zs
2 2 0.500813 0.525415 0.274841
3 1 0.534147 0.534164 0.302136
1 1 0.459553 0.476245 0.328894
4 2 0.519919 0.453321 0.454646
ITEM: TIMESTEP
75000
ITEM: NUMBER OF ATOMS
4
ITEM: BOX BOUNDS fm fm fm
-3.0000000000000000e+01 3.0000000000000000e+01
-3.0000000000000000e+01 3.0000000000000000e+01
0.0000000000000000e+00 6.0000000000000000e+01
ITEM: ATOMS id type xs ys zs
2 2 0.500813 0.525415 0.25939
3 1 0.534147 0.534164 0.286983
1 1 0.459553 0.476245 0.314041
4 2 0.519919 0.453321 0.441287
ITEM: TIMESTEP
76000
ITEM: NUMBER OF ATOMS
4
ITEM: BOX BOUNDS fm fm fm
-3.0000000000000000e+01 3.0000000000000000e+01
-3.0000000000000000e+01 3.0000000000000000e+01
0.0000000000000000e+00 6.0000000000000000e+01
ITEM: ATOMS id type xs ys zs
2 2 0.500813 0.525415 0.243772
3 1 0.534147 0.534164 0.271665
1 1 0.459553 0.476245 0.299021
4 2 0.519919 0.453321 0.427762
ITEM: TIMESTEP
77000
ITEM: NUMBER OF ATOMS
4
ITEM: BOX BOUNDS fm fm fm
-3.0000000000000000e+01 3.0000000000000000e+01
-3.0000000000000000e+01 3.0000000000000000e+01
0.0000000000000000e+00 6.0000000000000000e+01
ITEM: ATOMS id type xs ys zs
2 2 0.500813 0.525415 0.227988
3 1 0.534147 0.534164 0.256179
1 1 0.459553 0.476245 0.283835
4 2 0.519919 0.453321 0.41407
ITEM: TIMESTEP
78000
ITEM: NUMBER OF ATOMS
4
ITEM: BOX BOUNDS fm fm fm
-3.0000000000000000e+01 3.0000000000000000e+01
-3.0000000000000000e+01 3.0000000000000000e+01
0.0000000000000000e+00 6.0000000000000000e+01
ITEM: ATOMS id type xs ys zs
2 2 0.500813 0.525415 0.212037
3 1 0.534147 0.534164 0.240527
1 1 0.459553 0.476245 0.268482
4 2 0.519919 0.453321 0.400212
ITEM: TIMESTEP
79000
ITEM: NUMBER OF ATOMS
4
ITEM: BOX BOUNDS fm fm fm
-3.0000000000000000e+01 3.0000000000000000e+01
-3.0000000000000000e+01 3.0000000000000000e+01
0.0000000000000000e+00 6.0000000000000000e+01
ITEM: ATOMS id type xs ys zs
2 2 0.500813 0.525415 0.195919
3 1 0.534147 0.534164 0.224709
1 1 0.459553 0.476245 0.252962
4 2 0.519919 0.453321 0.386187
ITEM: TIMESTEP
80000
ITEM: NUMBER OF ATOMS
4
ITEM: BOX BOUNDS fm fm fm
-3.0000000000000000e+01 3.0000000000000000e+01
-3.0000000000000000e+01 3.0000000000000000e+01
0.0000000000000000e+00 6.0000000000000000e+01
ITEM: ATOMS id type xs ys zs
2 2 0.500813 0.525415 0.179635
3 1 0.534147 0.534164 0.208723
1 1 0.459553 0.476245 0.237276
4 2 0.519919 0.453321 0.371995
ITEM: TIMESTEP
81000
ITEM: NUMBER OF ATOMS
4
ITEM: BOX BOUNDS fm fm fm
-3.0000000000000000e+01 3.0000000000000000e+01
-3.0000000000000000e+01 3.0000000000000000e+01
0.0000000000000000e+00 6.0000000000000000e+01
ITEM: ATOMS id type xs ys zs
2 2 0.500813 0.525415 0.163184
3 1 0.534147 0.534164 0.192571
1 1 0.459553 0.476245 0.221422
4 2 0.519919 0.453321 0.357637
ITEM: TIMESTEP
82000
ITEM: NUMBER OF ATOMS
4
ITEM: BOX BOUNDS fm fm fm
-3.0000000000000000e+01 3.0000000000000000e+01
-3.0000000000000000e+01 3.0000000000000000e+01
0.0000000000000000e+00 6.0000000000000000e+01
ITEM: ATOMS id type xs ys zs
2 2 0.500813 0.525415 0.146566
3 1 0.534147 0.534164 0.176252