ITEM: TIMESTEP
0
ITEM: NUMBER OF ATOMS
0
ITEM: BOX BOUNDS fm fm fm
-3.0000000000000000e+01 3.0000000000000000e+01
-3.0000000000000000e+01 3.0000000000000000e+01
0.0000000000000000e+00 6.0000000000000000e+01
ITEM: ATOMS id type xs ys zs
ITEM: TIMESTEP
1000
ITEM: NUMBER OF ATOMS
16
ITEM: BOX BOUNDS fm fm fm
-3.0000000000000000e+01 3.0000000000000000e+01
-3.0000000000000000e+01 3.0000000000000000e+01
0.0000000000000000e+00 6.0000000000000000e+01
ITEM: ATOMS id type xs ys zs
1 1 0.459553 0.476245 0.956993
2 1 0.481588 0.455599 0.94617
3 1 0.460308 0.459983 0.946382
4 2 0.500813 0.525415 0.945292
5 2 0.500427 0.549701 0.962498
6 2 0.454846 0.537721 0.957483
7 2 0.481849 0.524592 0.954846
8 2 0.471269 0.549555 0.969488
9 2 0.480963 0.548033 0.942579
10 2 0.458358 0.517196 0.950941
11 1 0.534147 0.534164 0.951411
12 1 0.533761 0.549402 0.977362
13 1 0.533557 0.526768 0.971201
14 2 0.519919 0.453321 0.976864
15 2 0.518376 0.480943 0.981733
16 2 0.517562 0.457072 0.953927
ITEM: TIMESTEP
2000
ITEM: NUMBER OF ATOMS
16
ITEM: BOX BOUNDS fm fm fm
-3.0000000000000000e+01 3.0000000000000000e+01
-3.0000000000000000e+01 3.0000000000000000e+01
0.0000000000000000e+00 6.0000000000000000e+01
ITEM: ATOMS id type xs ys zs
3 1 0.460308 0.459983 0.93445
2 1 0.481588 0.455599 0.934206
4 2 0.500813 0.525415 0.933197
9 2 0.480963 0.548033 0.930089
16 2 0.517562 0.457072 0.943192
1 1 0.459553 0.476245 0.946789
10 2 0.458358 0.517196 0.939716
7 2 0.481849 0.524592 0.944267
6 2 0.454846 0.537721 0.947366
11 1 0.534147 0.534164 0.940261
8 2 0.471269 0.549555 0.96186
5 2 0.500427 0.549701 0.95333
14 2 0.519919 0.453321 0.971386
13 1 0.533557 0.526768 0.964008
12 1 0.533761 0.549402 0.972066
15 2 0.518376 0.480943 0.97859
ITEM: TIMESTEP
3000
ITEM: NUMBER OF ATOMS
16
ITEM: BOX BOUNDS fm fm fm
-3.0000000000000000e+01 3.0000000000000000e+01
-3.0000000000000000e+01 3.0000000000000000e+01
0.0000000000000000e+00 6.0000000000000000e+01
ITEM: ATOMS id type xs ys zs
9 2 0.480963 0.548033 0.915933
3 1 0.460308 0.459983 0.920851
2 1 0.481588 0.455599 0.920576
10 2 0.458358 0.517196 0.926824
4 2 0.500813 0.525415 0.919436
16 2 0.517562 0.457072 0.930791
1 1 0.459553 0.476245 0.934918
7 2 0.481849 0.524592 0.932021
6 2 0.454846 0.537721 0.935583
11 1 0.534147 0.534164 0.927445
5 2 0.500427 0.549701 0.942496
13 1 0.533557 0.526768 0.955148
8 2 0.471269 0.549555 0.952566
14 2 0.519919 0.453321 0.964242
15 2 0.518376 0.480943 0.97378
12 1 0.533761 0.549402 0.965104
ITEM: TIMESTEP
4000
ITEM: NUMBER OF ATOMS
16
ITEM: BOX BOUNDS fm fm fm
-3.0000000000000000e+01 3.0000000000000000e+01
-3.0000000000000000e+01 3.0000000000000000e+01
0.0000000000000000e+00 6.0000000000000000e+01
ITEM: ATOMS id type xs ys zs
3 1 0.460308 0.459983 0.905585
2 1 0.481588 0.455599 0.905278
4 2 0.500813 0.525415 0.904008
9 2 0.480963 0.548033 0.90011
16 2 0.517562 0.457072 0.916723
10 2 0.458358 0.517196 0.912266
11 1 0.534147 0.534164 0.912962
1 1 0.459553 0.476245 0.921381
7 2 0.481849 0.524592 0.918109
6 2 0.454846 0.537721 0.922133
5 2 0.500427 0.549701 0.929995
13 1 0.533557 0.526768 0.944621
8 2 0.471269 0.549555 0.941605
14 2 0.519919 0.453321 0.955431
12 1 0.533761 0.549402 0.956475
15 2 0.518376 0.480943 0.967303
ITEM: TIMESTEP
5000
ITEM: NUMBER OF ATOMS
16
ITEM: BOX BOUNDS fm fm fm
-3.0000000000000000e+01 3.0000000000000000e+01
-3.0000000000000000e+01 3.0000000000000000e+01
0.0000000000000000e+00 6.0000000000000000e+01
ITEM: ATOMS id type xs ys zs
9 2 0.480963 0.548033 0.882621
3 1 0.460308 0.459983 0.888653
2 1 0.481588 0.455599 0.888314
4 2 0.500813 0.525415 0.886913
16 2 0.517562 0.457072 0.900988
10 2 0.458358 0.517196 0.89604
7 2 0.481849 0.524592 0.902531
11 1 0.534147 0.534164 0.896813
1 1 0.459553 0.476245 0.906177
6 2 0.454846 0.537721 0.907016
5 2 0.500427 0.549701 0.915827
13 1 0.533557 0.526768 0.932428
8 2 0.471269 0.549555 0.928978
14 2 0.519919 0.453321 0.944953
12 1 0.533761 0.549402 0.94618
15 2 0.518376 0.480943 0.95916
ITEM: TIMESTEP
6000
ITEM: NUMBER OF ATOMS
16
ITEM: BOX BOUNDS fm fm fm
-3.0000000000000000e+01 3.0000000000000000e+01
-3.0000000000000000e+01 3.0000000000000000e+01
0.0000000000000000e+00 6.0000000000000000e+01
ITEM: ATOMS id type xs ys zs
3 1 0.460308 0.459983 0.870054
2 1 0.481588 0.455599 0.869684
4 2 0.500813 0.525415 0.868151
9 2 0.480963 0.548033 0.863465
16 2 0.517562 0.457072 0.883587
10 2 0.458358 0.517196 0.878149
11 1 0.534147 0.534164 0.878997
1 1 0.459553 0.476245 0.889306
7 2 0.481849 0.524592 0.885285
6 2 0.454846 0.537721 0.890233
5 2 0.500427 0.549701 0.899992
8 2 0.471269 0.549555 0.914683
13 1 0.533557 0.526768 0.918568
14 2 0.519919 0.453321 0.932809
12 1 0.533761 0.549402 0.934218
15 2 0.518376 0.480943 0.94935
ITEM: TIMESTEP
7000
ITEM: NUMBER OF ATOMS
32
ITEM: BOX BOUNDS fm fm fm
-3.0000000000000000e+01 3.0000000000000000e+01
-3.0000000000000000e+01 3.0000000000000000e+01
0.0000000000000000e+00 6.0000000000000000e+01
ITEM: ATOMS id type xs ys zs
3 1 0.460308 0.459983 0.849788
2 1 0.481588 0.455599 0.849386
4 2 0.500813 0.525415 0.847723
9 2 0.480963 0.548033 0.842642
10 2 0.458358 0.517196 0.85859
11 1 0.534147 0.534164 0.859514
16 2 0.517562 0.457072 0.864519
1 1 0.459553 0.476245 0.870768
7 2 0.481849 0.524592 0.866373
6 2 0.454846 0.537721 0.871783
5 2 0.500427 0.549701 0.882491
13 1 0.533557 0.526768 0.903042
8 2 0.471269 0.549555 0.898723
14 2 0.519919 0.453321 0.918998
12 1 0.533761 0.549402 0.920589
15 2 0.518376 0.480943 0.937873
17 1 0.466651 0.465318 0.9822
18 1 0.467119 0.468296 0.960891
19 1 0.462537 0.451587 0.956032
20 2 0.498361 0.549982 0.959656
21 2 0.484218 0.53637 0.976353
22 2 0.461889 0.521791 0.978623
23 2 0.509382 0.537495 0.969636
24 2 0.468306 0.516767 0.960849
25 2 0.471169 0.546233 0.946969
26 2 0.459877 0.549444 0.975251
27 1 0.545761 0.534433 0.969163
28 1 0.527767 0.549101 0.96064
29 1 0.516968 0.517753 0.955372
30 2 0.533043 0.454399 0.980563
31 2 0.522708 0.459122 0.951274
32 2 0.535075 0.479771 0.981462
ITEM: TIMESTEP
8000
ITEM: NUMBER OF ATOMS
32
ITEM: BOX BOUNDS fm fm fm
-3.0000000000000000e+01 3.0000000000000000e+01
-3.0000000000000000e+01 3.0000000000000000e+01
0.0000000000000000e+00 6.0000000000000000e+01
ITEM: ATOMS id type xs ys zs
3 1 0.460308 0.459983 0.827856
2 1 0.481588 0.455599 0.827422
4 2 0.500813 0.525415 0.825628
9 2 0.480963 0.548033 0.820152
10 2 0.458358 0.517196 0.837365
11 1 0.534147 0.534164 0.838364
16 2 0.517562 0.457072 0.843785
7 2 0.481849 0.524592 0.845794
1 1 0.459553 0.476245 0.850564
6 2 0.454846 0.537721 0.851666
5 2 0.500427 0.549701 0.863324
8 2 0.471269 0.549555 0.881095
13 1 0.533557 0.526768 0.885848
14 2 0.519919 0.453321 0.90352
12 1 0.533761 0.549402 0.905294
15 2 0.518376 0.480943 0.92473
25 2 0.471169 0.546233 0.935125
19 1 0.462537 0.451587 0.945658
31 2 0.522708 0.459122 0.940103
29 1 0.516968 0.517753 0.944884
20 2 0.498361 0.549982 0.949938
18 1 0.467119 0.468296 0.951407
24 2 0.468306 0.516767 0.951358
23 2 0.509382 0.537495 0.962045
27 1 0.545761 0.534433 0.961456
28 1 0.527767 0.549101 0.951108
22 2 0.461889 0.521791 0.973827
21 2 0.484218 0.53637 0.970696
26 2 0.459877 0.549444 0.969227
30 2 0.533043 0.454399 0.976691
17 1 0.466651 0.465318 0.979422
32 2 0.535075 0.479771 0.978131
ITEM: TIMESTEP
9000
ITEM: NUMBER OF ATOMS
32
ITEM: BOX BOUNDS fm fm fm
-3.0000000000000000e+01 3.0000000000000000e+01
-3.0000000000000000e+01 3.0000000000000000e+01
0.0000000000000000e+00 6.0000000000000000e+01
ITEM: ATOMS id type xs ys zs
9 2 0.480963 0.548033 0.795996
3 1 0.460308 0.459983 0.804257
2 1 0.481588 0.455599 0.803791
4 2 0.500813 0.525415 0.801867
10 2 0.458358 0.517196 0.814473
11 1 0.534147 0.534164 0.815548
16 2 0.517562 0.457072 0.821383
7 2 0.481849 0.524592 0.823549
1 1 0.459553 0.476245 0.828693
6 2 0.454846 0.537721 0.829883
5 2 0.500427 0.549701 0.842489
13 1 0.533557 0.526768 0.866988
8 2 0.471269 0.549555 0.861801
14 2 0.519919 0.453321 0.886376
12 1 0.533761 0.549402 0.888331
15 2 0.518376 0.480943 0.90992
25 2 0.471169 0.546233 0.921615
19 1 0.462537 0.451587 0.933618
31 2 0.522708 0.459122 0.927265
29 1 0.516968 0.517753 0.932729
20 2 0.498361 0.549982 0.938553
18 1 0.467119 0.468296 0.940257
24 2 0.468306 0.516767 0.9402
28 1 0.527767 0.549101 0.93991
23 2 0.509382 0.537495 0.952787
27 1 0.545761 0.534433 0.952083
26 2 0.459877 0.549444 0.961536
30 2 0.533043 0.454399 0.971151
17 1 0.466651 0.465318 0.974978
32 2 0.535075 0.479771 0.973133
22 2 0.461889 0.521791 0.967364
21 2 0.484218 0.53637 0.963372
ITEM: TIMESTEP
10000
ITEM: NUMBER OF ATOMS
32
ITEM: BOX BOUNDS fm fm fm
-3.0000000000000000e+01 3.0000000000000000e+01
-3.0000000000000000e+01 3.0000000000000000e+01
0.0000000000000000e+00 6.0000000000000000e+01
ITEM: ATOMS id type xs ys zs
9 2 0.480963 0.548033 0.770173
3 1 0.460308 0.459983 0.778991
2 1 0.481588 0.455599 0.778494
4 2 0.500813 0.525415 0.776439
10 2 0.458358 0.517196 0.789915
11 1 0.534147 0.534164 0.791065
16 2 0.517562 0.457072 0.797315
1 1 0.459553 0.476245 0.805156
7 2 0.481849 0.524592 0.799637
6 2 0.454846 0.537721 0.806433
5 2 0.500427 0.549701 0.819988
13 1 0.533557 0.526768 0.846462
8 2 0.471269 0.549555 0.84084
14 2 0.519919 0.453321 0.867565
12 1 0.533761 0.549402 0.869703
15 2 0.518376 0.480943 0.893443
31 2 0.522708 0.459122 0.91276
25 2 0.471169 0.546233 0.906438
19 1 0.462537 0.451587 0.919911
18 1 0.467119 0.468296 0.927441
24 2 0.468306 0.516767 0.927376
29 1 0.516968 0.517753 0.918907
20 2 0.498361 0.549982 0.925502
28 1 0.527767 0.549101 0.927045
23 2 0.509382 0.537495 0.941863
27 1 0.545761 0.534433 0.941043
22 2 0.461889 0.521791 0.959234
21 2 0.484218 0.53637 0.954381
26 2 0.459877 0.549444 0.952178
30 2 0.533043 0.454399 0.963945
17 1 0.466651 0.465318 0.968867
32 2 0.535075 0.479771 0.966468
ITEM: TIMESTEP
11000
ITEM: NUMBER OF ATOMS
32
ITEM: BOX BOUNDS fm fm fm
-3.0000000000000000e+01 3.0000000000000000e+01
-3.0000000000000000e+01 3.0000000000000000e+01
0.0000000000000000e+00 6.0000000000000000e+01
ITEM: ATOMS id type xs ys zs
9 2 0.480963 0.548033 0.742684
3 1 0.460308 0.459983 0.752059
2 1 0.481588 0.455599 0.75153
4 2 0.500813 0.525415 0.749344
10 2 0.458358 0.517196 0.76369
16 2 0.517562 0.457072 0.771581
7 2 0.481849 0.524592 0.774058
11 1 0.534147 0.534164 0.764916
1 1 0.459553 0.476245 0.779951
6 2 0.454846 0.537721 0.781316
5 2 0.500427 0.549701 0.79582
13 1 0.533557 0.526768 0.824268
8 2 0.471269 0.549555 0.818213
14 2 0.519919 0.453321 0.847087
12 1 0.533761 0.549402 0.849407
15 2 0.518376 0.480943 0.8753
25 2 0.471169 0.546233 0.889594
19 1 0.462537 0.451587 0.904537
31 2 0.522708 0.459122 0.896588
29 1 0.516968 0.517753 0.903419
18 1 0.467119 0.468296 0.912957
24 2 0.468306 0.516767 0.912885
20 2 0.498361 0.549982 0.910784
28 1 0.527767 0.549101 0.912514
23 2 0.509382 0.537495 0.929272
27 1 0.545761 0.534433 0.928336
22 2 0.461889 0.521791 0.949438
21 2 0.484218 0.53637 0.943723
26 2 0.459877 0.549444 0.941154
30 2 0.533043 0.454399 0.955073
17 1 0.466651 0.465318 0.96109
32 2 0.535075 0.479771 0.958137
ITEM: TIMESTEP
12000
ITEM: NUMBER OF ATOMS
32
ITEM: BOX BOUNDS fm fm fm
-3.0000000000000000e+01 3.0000000000000000e+01
-3.0000000000000000e+01 3.0000000000000000e+01
0.0000000000000000e+00 6.0000000000000000e+01
ITEM: ATOMS id type xs ys zs
2 1 0.481588 0.455599 0.722899
4 2 0.500813 0.525415 0.720583
9 2 0.480963 0.548033 0.713528
3 1 0.460308 0.459983 0.72346
10 2 0.458358 0.517196 0.735798
11 1 0.534147 0.534164 0.7371
16 2 0.517562 0.457072 0.744179
1 1 0.459553 0.476245 0.753081
7 2 0.481849 0.524592 0.746813
6 2 0.454846 0.537721 0.754533
5 2 0.500427 0.549701 0.769986
8 2 0.471269 0.549555 0.793918
13 1 0.533557 0.526768 0.800409
14 2 0.519919 0.453321 0.824943
12 1 0.533761 0.549402 0.827445
15 2 0.518376 0.480943 0.85549
25 2 0.471169 0.546233 0.871083
31 2 0.522708 0.459122 0.87875
19 1 0.462537 0.451587 0.887496
29 1 0.516968 0.517753 0.886264
20 2 0.498361 0.549982 0.894399
18 1 0.467119 0.468296 0.896807
24 2 0.468306 0.516767 0.896727
28 1 0.527767 0.549101 0.896316
23 2 0.509382 0.537495 0.915014
27 1 0.545761 0.534433 0.913963
22 2 0.461889 0.521791 0.937975
21 2 0.484218 0.53637 0.931399
26 2 0.459877 0.549444 0.928463
30 2 0.533043 0.454399 0.944534
32 2 0.535075 0.479771 0.948139
17 1 0.466651 0.465318 0.951645
ITEM: TIMESTEP
13000
ITEM: NUMBER OF ATOMS
48
ITEM: BOX BOUNDS fm fm fm
-3.0000000000000000e+01 3.0000000000000000e+01
-3.0000000000000000e+01 3.0000000000000000e+01
0.0000000000000000e+00 6.0000000000000000e+01
ITEM: ATOMS id type xs ys zs
4 2 0.500813 0.525415 0.690155
9 2 0.480963 0.548033 0.682705
3 1 0.460308 0.459983 0.693195
2 1 0.481588 0.455599 0.692602
10 2 0.458358 0.517196 0.706239
11 1 0.534147 0.534164 0.707617
16 2 0.517562 0.457072 0.715111
7 2 0.481849 0.524592 0.717901
1 1 0.459553 0.476245 0.724543
6 2 0.454846 0.537721 0.726083
5 2 0.500427 0.549701 0.742485
13 1 0.533557 0.526768 0.774882
8 2 0.471269 0.549555 0.767958
14 2 0.519919 0.453321 0.801132
12 1 0.533761 0.549402 0.803816
15 2 0.518376 0.480943 0.834013
31 2 0.522708 0.459122 0.859245
25 2 0.471169 0.546233 0.850906
19 1 0.462537 0.451587 0.868789
29 1 0.516968 0.517753 0.867442
18 1 0.467119 0.468296 0.878991
24 2 0.468306 0.516767 0.878902
20 2 0.498361 0.549982 0.876348
28 1 0.527767 0.549101 0.878451
23 2 0.509382 0.537495 0.899089
27 1 0.545761 0.534433 0.897923
26 2 0.459877 0.549444 0.914105
22 2 0.461889 0.521791 0.924845
21 2 0.484218 0.53637 0.917408
30 2 0.533043 0.454399 0.932328
32 2 0.535075 0.479771 0.936474
17 1 0.466651 0.465318 0.940535
33 1 0.455875 0.483279 0.981012
34 1 0.467931 0.457875 0.982943
35 1 0.453305 0.470112 0.968499
36 2 0.482568 0.532134 0.980185
37 2 0.503538 0.524928 0.97866
38 2 0.459468 0.54825 0.9831
39 2 0.460813 0.519035 0.982609
40 2 0.480354 0.528317 0.959906
41 2 0.46435 0.53932 0.96668
42 2 0.504504 0.541861 0.974095
43 1 0.522716 0.546518 0.971829
44 1 0.544254 0.51865 0.970956
45 1 0.525024 0.517725 0.972189
46 2 0.536333 0.450189 0.969795
47 2 0.540519 0.467595 0.980468
48 2 0.516764 0.454231 0.968023
ITEM: TIMESTEP
14000
ITEM: NUMBER OF ATOMS
48
ITEM: BOX BOUNDS fm fm fm
-3.0000000000000000e+01 3.0000000000000000e+01
-3.0000000000000000e+01 3.0000000000000000e+01
0.0000000000000000e+00 6.0000000000000000e+01
ITEM: ATOMS id type xs ys zs
4 2 0.500813 0.525415 0.65806
9 2 0.480963 0.548033 0.650215
3 1 0.460308 0.459983 0.661262
2 1 0.481588 0.455599 0.660638
10 2 0.458358 0.517196 0.675014
11 1 0.534147 0.534164 0.676467
16 2 0.517562 0.457072 0.684377
7 2 0.481849 0.524592 0.687322
1 1 0.459553 0.476245 0.694339
6 2 0.454846 0.537721 0.695966
5 2 0.500427 0.549701 0.713317
8 2 0.471269 0.549555 0.74033
13 1 0.533557 0.526768 0.747689
14 2 0.519919 0.453321 0.775654
12 1 0.533761 0.549402 0.778521
15 2 0.518376 0.480943 0.81087
31 2 0.522708 0.459122 0.838074
25 2 0.471169 0.546233 0.829062
19 1 0.462537 0.451587 0.848416
29 1 0.516968 0.517753 0.846954
18 1 0.467119 0.468296 0.859508
24 2 0.468306 0.516767 0.859411
20 2 0.498361 0.549982 0.85663
28 1 0.527767 0.549101 0.85892
23 2 0.509382 0.537495 0.881498
27 1 0.545761 0.534433 0.880216
21 2 0.484218 0.53637 0.901751
26 2 0.459877 0.549444 0.898081
22 2 0.461889 0.521791 0.910049
30 2 0.533043 0.454399 0.918455
32 2 0.535075 0.479771 0.923142
17 1 0.466651 0.465318 0.927757
40 2 0.480354 0.528317 0.950235
48 2 0.516764 0.454231 0.960045
46 2 0.536333 0.450189 0.962243
35 1 0.453305 0.470112 0.960633
41 2 0.46435 0.53932 0.958395
45 1 0.525024 0.517725 0.96526
44 1 0.544254 0.51865 0.963699
37 2 0.503538 0.524928 0.973879
42 2 0.504504 0.541861 0.967712
43 1 0.522716 0.546518 0.964802
34 1 0.467931 0.457875 0.980968
47 2 0.540519 0.467595 0.976544
33 1 0.455875 0.483279 0.977397
39 2 0.460813 0.519035 0.980222
36 2 0.482568 0.532134 0.976112
38 2 0.459468 0.54825 0.981385
ITEM: TIMESTEP
15000
ITEM: NUMBER OF ATOMS
48
ITEM: BOX BOUNDS fm fm fm
-3.0000000000000000e+01 3.0000000000000000e+01
-3.0000000000000000e+01 3.0000000000000000e+01
0.0000000000000000e+00 6.0000000000000000e+01
ITEM: ATOMS id type xs ys zs
9 2 0.480963 0.548033 0.616059
4 2 0.500813 0.525415 0.624298
3 1 0.460308 0.459983 0.627663
2 1 0.481588 0.455599 0.627007
10 2 0.458358 0.517196 0.642122
11 1 0.534147 0.534164 0.643651
16 2 0.517562 0.457072 0.651976
7 2 0.481849 0.524592 0.655077
1 1 0.459553 0.476245 0.662468
6 2 0.454846 0.537721 0.664183
5 2 0.500427 0.549701 0.682483
13 1 0.533557 0.526768 0.718829
8 2 0.471269 0.549555 0.711036
14 2 0.519919 0.453321 0.74851
12 1 0.533761 0.549402 0.751559
15 2 0.518376 0.480943 0.78606
25 2 0.471169 0.546233 0.805552
31 2 0.522708 0.459122 0.815236
19 1 0.462537 0.451587 0.826375
29 1 0.516968 0.517753 0.824799
18 1 0.467119 0.468296 0.838358
24 2 0.468306 0.516767 0.838253
20 2 0.498361 0.549982 0.835246
28 1 0.527767 0.549101 0.837721
23 2 0.509382 0.537495 0.862241
27 1 0.545761 0.534433 0.860843
26 2 0.459877 0.549444 0.88039
22 2 0.461889 0.521791 0.893586
21 2 0.484218 0.53637 0.884426
30 2 0.533043 0.454399 0.902916
17 1 0.466651 0.465318 0.913313
32 2 0.535075 0.479771 0.908144
48 2 0.516764 0.454231 0.9504
40 2 0.480354 0.528317 0.938898
41 2 0.46435 0.53932 0.948443
46 2 0.536333 0.450189 0.953024
35 1 0.453305 0.470112 0.951101
45 1 0.525024 0.517725 0.956664
44 1 0.544254 0.51865 0.954775
42 2 0.504504 0.541861 0.959662
43 1 0.522716 0.546518 0.956109
47 2 0.540519 0.467595 0.970953
33 1 0.455875 0.483279 0.972115
37 2 0.503538 0.524928 0.967431
36 2 0.482568 0.532134 0.970371
34 1 0.467931 0.457875 0.977326
39 2 0.460813 0.519035 0.976168
38 2 0.459468 0.54825 0.978004
ITEM: TIMESTEP
16000
ITEM: NUMBER OF ATOMS
48
ITEM: BOX BOUNDS fm fm fm
-3.0000000000000000e+01 3.0000000000000000e+01
-3.0000000000000000e+01 3.0000000000000000e+01
0.0000000000000000e+00 6.0000000000000000e+01
ITEM: ATOMS id type xs ys zs
9 2 0.480963 0.548033 0.580236
3 1 0.460308 0.459983 0.592398
2 1 0.481588 0.455599 0.59171
4 2 0.500813 0.525415 0.58887
10 2 0.458358 0.517196 0.607564
11 1 0.534147 0.534164 0.609168
16 2 0.517562 0.457072 0.617908
7 2 0.481849 0.524592 0.621165
1 1 0.459553 0.476245 0.62893
6 2 0.454846 0.537721 0.630733
5 2 0.500427 0.549701 0.649981
8 2 0.471269 0.549555 0.680075
13 1 0.533557 0.526768 0.688302
14 2 0.519919 0.453321 0.719699
12 1 0.533761 0.549402 0.72293
15 2 0.518376 0.480943 0.759583
25 2 0.471169 0.546233 0.780375
31 2 0.522708 0.459122 0.790731
19 1 0.462537 0.451587 0.802668
29 1 0.516968 0.517753 0.800977
18 1 0.467119 0.468296 0.815541
24 2 0.468306 0.516767 0.815429
20 2 0.498361 0.549982 0.812194
28 1 0.527767 0.549101 0.814857
27 1 0.545761 0.534433 0.839803
23 2 0.509382 0.537495 0.841316
26 2 0.459877 0.549444 0.861032
21 2 0.484218 0.53637 0.865436
22 2 0.461889 0.521791 0.875456
30 2 0.533043 0.454399 0.88571
32 2 0.535075 0.479771 0.89148
17 1 0.466651 0.465318 0.897202
40 2 0.480354 0.528317 0.925893
48 2 0.516764 0.454231 0.939089
41 2 0.46435 0.53932 0.936825
46 2 0.536333 0.450189 0.942139
35 1 0.453305 0.470112 0.939901
45 1 0.525024 0.517725 0.946402
44 1 0.544254 0.51865 0.944185
42 2 0.504504 0.541861 0.949945
43 1 0.522716 0.546518 0.945749
37 2 0.503538 0.524928 0.959317
34 1 0.467931 0.457875 0.972018
47 2 0.540519 0.467595 0.963695
33 1 0.455875 0.483279 0.965166
39 2 0.460813 0.519035 0.970447
36 2 0.482568 0.532134 0.962965
38 2 0.459468 0.54825 0.972956
ITEM: TIMESTEP
17000
ITEM: NUMBER OF ATOMS
48
ITEM: BOX BOUNDS fm fm fm
-3.0000000000000000e+01 3.0000000000000000e+01
-3.0000000000000000e+01 3.0000000000000000e+01
0.0000000000000000e+00 6.0000000000000000e+01
ITEM: ATOMS id type xs ys zs
9 2 0.480963 0.548033 0.542747
4 2 0.500813 0.525415 0.551775
3 1 0.460308 0.459983 0.555465
2 1 0.481588 0.455599 0.554746
10 2 0.458358 0.517196 0.571339
11 1 0.534147 0.534164 0.573019
16 2 0.517562 0.457072 0.582173
1 1 0.459553 0.476245 0.593726
7 2 0.481849 0.524592 0.585586
6 2 0.454846 0.537721 0.595616
5 2 0.500427 0.549701 0.615814
8 2 0.471269 0.549555 0.647447
13 1 0.533557 0.526768 0.656109
14 2 0.519919 0.453321 0.689221
12 1 0.533761 0.549402 0.692635
15 2 0.518376 0.480943 0.73144
25 2 0.471169 0.546233 0.753531
31 2 0.522708 0.459122 0.764559
19 1 0.462537 0.451587 0.777295
29 1 0.516968 0.517753 0.775489
18 1 0.467119 0.468296 0.791058
24 2 0.468306 0.516767 0.790937
20 2 0.498361 0.549982 0.787476
28 1 0.527767 0.549101 0.790325
27 1 0.545761 0.534433 0.817096
23 2 0.509382 0.537495 0.818725
21 2 0.484218 0.53637 0.844778
26 2 0.459877 0.549444 0.840008
22 2 0.461889 0.521791 0.85566
30 2 0.533043 0.454399 0.866837
17 1 0.466651 0.465318 0.879424
32 2 0.535075 0.479771 0.873148
40 2 0.480354 0.528317 0.911222
48 2 0.516764 0.454231 0.926111
35 1 0.453305 0.470112 0.927035
41 2 0.46435 0.53932 0.92354
46 2 0.536333 0.450189 0.929587
45 1 0.525024 0.517725 0.934473
44 1 0.544254 0.51865 0.931927
42 2 0.504504 0.541861 0.938561
43 1 0.522716 0.546518 0.933722
37 2 0.503538 0.524928 0.949536
47 2 0.540519 0.467595 0.954771
33 1 0.455875 0.483279 0.956551
36 2 0.482568 0.532134 0.953891
34 1 0.467931 0.457875 0.965043
39 2 0.460813 0.519035 0.96306
38 2 0.459468 0.54825 0.966241
ITEM: TIMESTEP
18000
ITEM: NUMBER OF ATOMS
48
ITEM: BOX BOUNDS fm fm fm
-3.0000000000000000e+01 3.0000000000000000e+01
-3.0000000000000000e+01 3.0000000000000000e+01
0.0000000000000000e+00 6.0000000000000000e+01
ITEM: ATOMS id type xs ys zs
9 2 0.480963 0.548033 0.503591
3 1 0.460308 0.459983 0.516867
2 1 0.481588 0.455599 0.516115
4 2 0.500813 0.525415 0.513014
10 2 0.458358 0.517196 0.533447
11 1 0.534147 0.534164 0.535203
16 2 0.517562 0.457072 0.544772
7 2 0.481849 0.524592 0.54834
1 1 0.459553 0.476245 0.556855
6 2 0.454846 0.537721 0.558833
5 2 0.500427 0.549701 0.579979
8 2 0.471269 0.549555 0.613153
13 1 0.533557 0.526768 0.622249
14 2 0.519919 0.453321 0.657077
12 1 0.533761 0.549402 0.660673
15 2 0.518376 0.480943 0.70163
25 2 0.471169 0.546233 0.725021
31 2 0.522708 0.459122 0.736721
19 1 0.462537 0.451587 0.750254
29 1 0.516968 0.517753 0.748334
20 2 0.498361 0.549982 0.761092
28 1 0.527767 0.549101 0.764127
18 1 0.467119 0.468296 0.764908
24 2 0.468306 0.516767 0.76478
23 2 0.509382 0.537495 0.794467
27 1 0.545761 0.534433 0.792722
26 2 0.459877 0.549444 0.817317
21 2 0.484218 0.53637 0.822454
22 2 0.461889 0.521791 0.834197
30 2 0.533043 0.454399 0.846298
17 1 0.466651 0.465318 0.85998
32 2 0.535075 0.479771 0.85315
40 2 0.480354 0.528317 0.894885
48 2 0.516764 0.454231 0.911466
46 2 0.536333 0.450189 0.915369
35 1 0.453305 0.470112 0.912503
41 2 0.46435 0.53932 0.908589
45 1 0.525024 0.517725 0.920877
44 1 0.544254 0.51865 0.918003
42 2 0.504504 0.541861 0.925511
43 1 0.522716 0.546518 0.920029
37 2 0.503538 0.524928 0.938088
47 2 0.540519 0.467595 0.94418
33 1 0.455875 0.483279 0.946268
36 2 0.482568 0.532134 0.943151
34 1 0.467931 0.457875 0.956401
39 2 0.460813 0.519035 0.954005
38 2 0.459468 0.54825 0.957859
ITEM: TIMESTEP
19000
ITEM: NUMBER OF ATOMS
64
ITEM: BOX BOUNDS fm fm fm
-3.0000000000000000e+01 3.0000000000000000e+01
-3.0000000000000000e+01 3.0000000000000000e+01
0.0000000000000000e+00 6.0000000000000000e+01
ITEM: ATOMS id type xs ys zs
9 2 0.480963 0.548033 0.462768
3 1 0.460308 0.459983 0.476601
2 1 0.481588 0.455599 0.475818
4 2 0.500813 0.525415 0.472586
10 2 0.458358 0.517196 0.493889
11 1 0.534147 0.534164 0.49572
16 2 0.517562 0.457072 0.505704
7 2 0.481849 0.524592 0.509428
1 1 0.459553 0.476245 0.518318
6 2 0.454846 0.537721 0.520383
5 2 0.500427 0.549701 0.542478
8 2 0.471269 0.549555 0.577192
13 1 0.533557 0.526768 0.586722
14 2 0.519919 0.453321 0.623266
12 1 0.533761 0.549402 0.627044
15 2 0.518376 0.480943 0.670153
25 2 0.471169 0.546233 0.694843
31 2 0.522708 0.459122 0.707216
29 1 0.516968 0.517753 0.719512
19 1 0.462537 0.451587 0.721547
18 1 0.467119 0.468296 0.737091
24 2 0.468306 0.516767 0.736955
20 2 0.498361 0.549982 0.73304
28 1 0.527767 0.549101 0.736262
23 2 0.509382 0.537495 0.768543
27 1 0.545761 0.534433 0.766682
26 2 0.459877 0.549444 0.792959
21 2 0.484218 0.53637 0.798463
22 2 0.461889 0.521791 0.811067
30 2 0.533043 0.454399 0.824092
17 1 0.466651 0.465318 0.838869
32 2 0.535075 0.479771 0.831486
40 2 0.480354 0.528317 0.87688
41 2 0.46435 0.53932 0.891971
48 2 0.516764 0.454231 0.895155
46 2 0.536333 0.450189 0.899484
35 1 0.453305 0.470112 0.896304
44 1 0.544254 0.51865 0.902413
43 1 0.522716 0.546518 0.904669
45 1 0.525024 0.517725 0.905615
42 2 0.504504 0.541861 0.910795
37 2 0.503538 0.524928 0.924974
47 2 0.540519 0.467595 0.931922
33 1 0.455875 0.483279 0.93432
36 2 0.482568 0.532134 0.930744
34 1 0.467931 0.457875 0.946093
39 2 0.460813 0.519035 0.943285
38 2 0.459468 0.54825 0.947811
49 1 0.472407 0.479152 0.968479
50 1 0.463043 0.459099 0.982604
51 1 0.454315 0.477123 0.983096
52 2 0.50498 0.539633 0.976788
53 2 0.469288 0.534581 0.958962
54 2 0.451273 0.546201 0.9721
55 2 0.49547 0.523318 0.966187
56 2 0.515957 0.523851 0.973333
57 2 0.505761 0.540297 0.957208
58 2 0.464236 0.519369 0.963683
59 1 0.531694 0.549964 0.975773
60 1 0.539434 0.534621 0.966727
61 1 0.549899 0.547024 0.972189
62 2 0.543443 0.483189 0.956716
63 2 0.520206 0.474297 0.96136
64 2 0.527439 0.459948 0.982498
ITEM: TIMESTEP
20000
ITEM: NUMBER OF ATOMS
64
ITEM: BOX BOUNDS fm fm fm
-3.0000000000000000e+01 3.0000000000000000e+01
-3.0000000000000000e+01 3.0000000000000000e+01
0.0000000000000000e+00 6.0000000000000000e+01
ITEM: ATOMS id type xs ys zs
9 2 0.480963 0.548033 0.420279
3 1 0.460308 0.459983 0.434669
2 1 0.481588 0.455599 0.433854
4 2 0.500813 0.525415 0.430491
10 2 0.458358 0.517196 0.452663
11 1 0.534147 0.534164 0.45457
16 2 0.517562 0.457072 0.464969
7 2 0.481849 0.524592 0.46885
1 1 0.459553 0.476245 0.478114
6 2 0.454846 0.537721 0.480266
5 2 0.500427 0.549701 0.50331
8 2 0.471269 0.549555 0.539565
13 1 0.533557 0.526768 0.549529
14 2 0.519919 0.453321 0.587788
12 1 0.533761 0.549402 0.591748
15 2 0.518376 0.480943 0.63701
25 2 0.471169 0.546233 0.663
31 2 0.522708 0.459122 0.676045
29 1 0.516968 0.517753 0.689024
19 1 0.462537 0.451587 0.691173
18 1 0.467119 0.468296 0.707608
24 2 0.468306 0.516767 0.707464
20 2 0.498361 0.549982 0.703322
28 1 0.527767 0.549101 0.706731
23 2 0.509382 0.537495 0.740952
27 1 0.545761 0.534433 0.738976
21 2 0.484218 0.53637 0.772806
26 2 0.459877 0.549444 0.766935
22 2 0.461889 0.521791 0.786271
30 2 0.533043 0.454399 0.80022
17 1 0.466651 0.465318 0.816092
32 2 0.535075 0.479771 0.808154
40 2 0.480354 0.528317 0.857209
48 2 0.516764 0.454231 0.877177
46 2 0.536333 0.450189 0.881932
35 1 0.453305 0.470112 0.878438
41 2 0.46435 0.53932 0.873686
45 1 0.525024 0.517725 0.888686
44 1 0.544254 0.51865 0.885156
43 1 0.522716 0.546518 0.887642
42 2 0.504504 0.541861 0.894411
37 2 0.503538 0.524928 0.910193
47 2 0.540519 0.467595 0.917998
33 1 0.455875 0.483279 0.920704
36 2 0.482568 0.532134 0.916671
34 1 0.467931 0.457875 0.934118
39 2 0.460813 0.519035 0.930897
38 2 0.459468 0.54825 0.936096
62 2 0.543443 0.483189 0.946463
53 2 0.469288 0.534581 0.949115
57 2 0.505761 0.540297 0.947042
49 1 0.472407 0.479152 0.960609
63 2 0.520206 0.474297 0.951967
58 2 0.464236 0.519369 0.954755
55 2 0.49547 0.523318 0.957792
60 1 0.539434 0.534621 0.958453
56 2 0.515957 0.523851 0.966725
52 2 0.50498 0.539633 0.971283
54 2 0.451273 0.546201 0.965147
59 1 0.531694 0.549964 0.969919
61 1 0.549899 0.547024 0.96526
50 1 0.463043 0.459099 0.98021
64 2 0.527439 0.459948 0.979995
51 1 0.454315 0.477123 0.981372
ITEM: TIMESTEP
21000
ITEM: NUMBER OF ATOMS
64
ITEM: BOX BOUNDS fm fm fm
-3.0000000000000000e+01 3.0000000000000000e+01
-3.0000000000000000e+01 3.0000000000000000e+01
0.0000000000000000e+00 6.0000000000000000e+01
ITEM: ATOMS id type xs ys zs
9 2 0.480963 0.548033 0.376122
3 1 0.460308 0.459983 0.39107
2 1 0.481588 0.455599 0.390223
4 2 0.500813 0.525415 0.38673
10 2 0.458358 0.517196 0.409772
11 1 0.534147 0.534164 0.411754
16 2 0.517562 0.457072 0.422568
7 2 0.481849 0.524592 0.426604
1 1 0.459553 0.476245 0.436243
6 2 0.454846 0.537721 0.438483
5 2 0.500427 0.549701 0.462476
8 2 0.471269 0.549555 0.500271
13 1 0.533557 0.526768 0.510669
14 2 0.519919 0.453321 0.550644
12 1 0.533761 0.549402 0.554786
15 2 0.518376 0.480943 0.6022
25 2 0.471169 0.546233 0.629489
31 2 0.522708 0.459122 0.643206
29 1 0.516968 0.517753 0.656869
19 1 0.462537 0.451587 0.659133
18 1 0.467119 0.468296 0.676458
24 2 0.468306 0.516767 0.676306
20 2 0.498361 0.549982 0.671938
28 1 0.527767 0.549101 0.675533
27 1 0.545761 0.534433 0.709602
23 2 0.509382 0.537495 0.711694
26 2 0.459877 0.549444 0.739244
21 2 0.484218 0.53637 0.745481
22 2 0.461889 0.521791 0.759807
30 2 0.533043 0.454399 0.774681
32 2 0.535075 0.479771 0.783156
17 1 0.466651 0.465318 0.791648
40 2 0.480354 0.528317 0.835872
48 2 0.516764 0.454231 0.857533
35 1 0.453305 0.470112 0.858905
41 2 0.46435 0.53932 0.853735
46 2 0.536333 0.450189 0.862713
45 1 0.525024 0.517725 0.87009
44 1 0.544254 0.51865 0.866232
43 1 0.522716 0.546518 0.868949
42 2 0.504504 0.541861 0.876361
47 2 0.540519 0.467595 0.902407
37 2 0.503538 0.524928 0.893745
36 2 0.482568 0.532134 0.900931
33 1 0.455875 0.483279 0.905422
34 1 0.467931 0.457875 0.920476
39 2 0.460813 0.519035 0.916843
38 2 0.459468 0.54825 0.922714
62 2 0.543443 0.483189 0.934543
53 2 0.469288 0.534581 0.937601
57 2 0.505761 0.540297 0.935209
63 2 0.520206 0.474297 0.940908
58 2 0.464236 0.519369 0.944161
55 2 0.49547 0.523318 0.947731
60 1 0.539434 0.534621 0.948512
49 1 0.472407 0.479152 0.951071
56 2 0.515957 0.523851 0.95845
54 2 0.451273 0.546201 0.956527
59 1 0.531694 0.549964 0.962398
61 1 0.549899 0.547024 0.956664
64 2 0.527439 0.459948 0.975825
52 2 0.50498 0.539633 0.964111
50 1 0.463043 0.459099 0.97615
51 1 0.454315 0.477123 0.977981
ITEM: TIMESTEP
22000
ITEM: NUMBER OF ATOMS
64
ITEM: BOX BOUNDS fm fm fm
-3.0000000000000000e+01 3.0000000000000000e+01
-3.0000000000000000e+01 3.0000000000000000e+01
0.0000000000000000e+00 6.0000000000000000e+01
ITEM: ATOMS id type xs ys zs
9 2 0.480963 0.548033 0.3303
4 2 0.500813 0.525415 0.341301
3 1 0.460308 0.459983 0.345804
2 1 0.481588 0.455599 0.344926
10 2 0.458358 0.517196 0.365213
11 1 0.534147 0.534164 0.367271
16 2 0.517562 0.457072 0.3785