ITEM: TIMESTEP
0
ITEM: NUMBER OF ATOMS
32000
ITEM: BOX BOUNDS pp pp fs
0.0000000000000000e+00 4.0000000000000000e+01
0.0000000000000000e+00 2.0000000000000000e+01
0.0000000000000000e+00 3.7292228860000002e+01
ITEM: ATOMS id type xs ys zs
7843 2 0.0358575 0.0165371 0.0105348
7984 2 0.105937 0.026998 0.00456296
7907 2 0.127265 0.00207806 0.00867087
7838 2 0.239589 0.00401782 0.00982988
7991 2 0.299078 0.00682215 0.0112767
7813 2 0.360308 0.0205695 0.00814355
7815 2 0.445283 0.0051198 0.00399888
7801 2 0.4747 0.0209718 0.00867746
7925 2 0.0741477 0.0478445 0.0151186
7879 2 0.25551 0.0453335 0.00960315
7994 2 0.280235 0.0391232 0.00770442
7993 2 0.44819 0.0541365 0.0086082
7785 2 0.234776 0.074226 0.00896758
7797 2 0.35195 0.079376 0.00381637
7924 2 0.39647 0.058565 0.0019024
7998 2 0.4821 0.0700825 0.00707228
7986 2 0.000464635 0.10257 0.000963976
7884 2 0.0596043 0.100748 0.0127798
7824 2 0.0860407 0.091716 0.00125167
7938 2 0.116484 0.086275 0.00800333
7963 2 0.156474 0.0906885 0.0131945
7889 2 0.184685 0.101361 0.00321483
7839 2 0.216937 0.11037 0.0041337
7918 2 0.258168 0.106257 0.00877867
7845 2 0.281985 0.0922805 0.00532291
7922 2 0.102748 0.128055 0.00746652
7781 2 0.238387 0.137051 0.00796209
7812 2 0.30309 0.119379 0.00758236
7835 2 0.328053 0.117501 0.00838955
7819 2 0.40751 0.117309 0.00285204
7972 2 0.480042 0.120249 0.0134288
7791 2 0.05804 0.154946 0.0116302
7927 2 0.0829755 0.156531 0.0133447
7953 2 0.1847 0.156367 0
7784 2 0.214812 0.163931 0.00818208
7795 2 0.321557 0.165177 0.0125345
7857 2 0.366088 0.164484 0.0142066
7851 2 0.385808 0.14278 0.00244209
7828 2 0.238872 0.186982 0.00945001
7979 2 0.296115 0.167397 0.0127258
7908 2 0.409475 0.16699 0.00722537
7825 2 0.445075 0.181668 0.01063
7790 2 0.0243098 0.217874 0.0126111
7981 2 0.0802873 0.220373 0.0123627
7786 2 0.165639 0.211986 0.00149482
7822 2 0.193398 0.213211 0.0044346
7867 2 0.258248 0.220755 0.00847294
7914 2 0.28319 0.213064 0.0129315
7974 2 0.416643 0.214097 0.000544398
7859 2 0.480645 0.20114 0.0136376
7882 2 0.00047162 0.227993 0.00480663
7774 2 0.344133 0.240692 0.00147206
7899 2 0.0131782 0.271169 0.00305951
7976 2 0.0369478 0.254387 0.000156942
7837 2 0.0960918 0.259327 0.00999391
7873 2 0.181078 0.256466 0.00962774
7862 2 0.213304 0.25348 0.0121968
7965 2 0.238013 0.250392 0.0081783
7905 2 0.274303 0.259253 0.00868782
7961 2 0.298822 0.264965 0.00420825
7956 2 0.450378 0.265049 0.0138278
7872 2 0.474685 0.250346 0.0106448
7949 2 0.0661618 0.284905 0.011982
7937 2 0.115929 0.289046 0.00650602
7846 2 0.166113 0.297403 0.00907001
7788 2 0.198045 0.293096 0.01135
7996 2 0.221749 0.297541 0.00307646
7826 2 0.247771 0.29435 0.000629276
7832 2 0.43012 0.295195 0.0130043
7881 2 0.491895 0.29024 0.0127897
7954 2 0.0769778 0.33049 0.0116747
7885 2 0.102198 0.329903 0.0112169
7871 2 0.26129 0.333082 0.0102506
7967 2 0.2995 0.319329 0.0100417
7811 2 0.333755 0.324389 0.000748853
7830 2 0.450472 0.324336 0.0122621
7985 2 0.05207 0.335348 0.0102872
7997 2 0.127139 0.333907 0.00837754
7911 2 0.15088 0.346706 0.00352277
7880 2 0.174961 0.344091 0.0106635
7866 2 0.214655 0.359639 0.0144339
7920 2 0.23637 0.336326 0.00977936
7776 2 0.428015 0.344489 0.00773306
7995 2 0.475708 0.336113 0.0118345
7868 2 0.330568 0.387656 0.0100722
7942 2 0.354633 0.374092 0.0103611
7802 2 0.38171 0.372282 0.0148109
7869 2 0.45884 0.372647 0.00733241
7971 2 0.483293 0.384164 0.00730284
7964 2 0.0430797 0.394332 0.0137761
7854 2 0.0681138 0.398629 0.0150966
7855 2 0.210178 0.402628 0.00159248
7818 2 0.26047 0.397026 0.00338379
7900 2 0.284555 0.409683 0.00043914
7796 2 0.370485 0.416499 0.0092549
7888 2 0.435755 0.392071 0.00813231
7816 2 0.0219242 0.421442 0.0129391
7883 2 0.048066 0.444248 0.0136104
7793 2 0.100557 0.418257 0.0132804
8000 2 0.125794 0.420597 0.0131806
7947 2 0.164183 0.442762 0.00548254
7852 2 0.189424 0.430889 0.00348689
7921 2 0.346518 0.42646 0.0146001
7847 2 0.0269257 0.469951 0.00939507
7987 2 0.111953 0.462429 0.00870543
7864 2 0.263543 0.447225 0.00631362
7809 2 0.399835 0.466759 0.00732021
7903 2 0.15789 0.497955 0.0104558
7834 2 0.193185 0.488537 0.00491236
7898 2 0.31654 0.476155 0.00126101
7798 2 0.343273 0.474228 0.00556304
7841 2 0.375995 0.481825 0.0061848
7874 2 0.42395 0.479864 0.00736998
23843 2 0.0358575 0.516535 0.0105348
23984 2 0.105937 0.527 0.00456296
23907 2 0.127265 0.50208 0.00867087
23838 2 0.239589 0.50402 0.00982988
23991 2 0.299078 0.50682 0.0112767
23813 2 0.360308 0.52057 0.00814355
23815 2 0.445283 0.50512 0.00399888
23801 2 0.4747 0.52097 0.00867746
23925 2 0.0741477 0.547845 0.0151186
23879 2 0.25551 0.545335 0.00960315
23994 2 0.280235 0.539125 0.00770442
23993 2 0.44819 0.554135 0.0086082
23785 2 0.234776 0.574225 0.00896758
23797 2 0.35195 0.579375 0.00381637
23924 2 0.39647 0.558565 0.0019024
23998 2 0.4821 0.570085 0.00707228
23986 2 0.000464635 0.60257 0.000963976
23884 2 0.0596043 0.60075 0.0127798
23824 2 0.0860407 0.591715 0.00125167
23938 2 0.116484 0.586275 0.00800333
23963 2 0.156474 0.59069 0.0131945
23889 2 0.184685 0.60136 0.00321483
23839 2 0.216937 0.61037 0.0041337
23918 2 0.258168 0.606255 0.00877867
23845 2 0.281985 0.59228 0.00532291
23922 2 0.102748 0.628055 0.00746652
23781 2 0.238387 0.63705 0.00796209
23812 2 0.30309 0.61938 0.00758236
23835 2 0.328053 0.6175 0.00838955
23819 2 0.40751 0.61731 0.00285204
23972 2 0.480042 0.62025 0.0134288
23791 2 0.05804 0.654945 0.0116302
23927 2 0.0829755 0.65653 0.0133447
23953 2 0.1847 0.656365 0
23784 2 0.214812 0.66393 0.00818208
23795 2 0.321557 0.665175 0.0125345
23857 2 0.366088 0.664485 0.0142066
23851 2 0.385808 0.64278 0.00244209
23828 2 0.238872 0.68698 0.00945001
23979 2 0.296115 0.667395 0.0127258
23908 2 0.409475 0.66699 0.00722537
23825 2 0.445075 0.68167 0.01063
23790 2 0.0243098 0.717875 0.0126111
23981 2 0.0802873 0.720375 0.0123627
23786 2 0.165639 0.711985 0.00149482
23822 2 0.193398 0.71321 0.0044346
23867 2 0.258248 0.720755 0.00847294
23914 2 0.28319 0.713065 0.0129315
23974 2 0.416643 0.714095 0.000544398
23859 2 0.480645 0.70114 0.0136376
23882 2 0.00047162 0.727995 0.00480663
23774 2 0.344133 0.74069 0.00147206
23899 2 0.0131782 0.77117 0.00305951
23976 2 0.0369478 0.754385 0.000156942
23837 2 0.0960918 0.759325 0.00999391
23873 2 0.181078 0.756465 0.00962774
23862 2 0.213304 0.75348 0.0121968
23965 2 0.238013 0.75039 0.0081783
23905 2 0.274303 0.759255 0.00868782
23961 2 0.298822 0.764965 0.00420825
23956 2 0.450378 0.76505 0.0138278
23872 2 0.474685 0.750345 0.0106448
23949 2 0.0661618 0.784905 0.011982
23937 2 0.115929 0.789045 0.00650602
23846 2 0.166113 0.797405 0.00907001
23788 2 0.198045 0.793095 0.01135
23996 2 0.221749 0.79754 0.00307646
23826 2 0.247771 0.79435 0.000629276
23832 2 0.43012 0.795195 0.0130043
23881 2 0.491895 0.79024 0.0127897
23954 2 0.0769778 0.83049 0.0116747
23885 2 0.102198 0.829905 0.0112169
23871 2 0.26129 0.83308 0.0102506
23967 2 0.2995 0.81933 0.0100417
23811 2 0.333755 0.82439 0.000748853
23830 2 0.450472 0.824335 0.0122621
23985 2 0.05207 0.83535 0.0102872
23997 2 0.127139 0.833905 0.00837754
23911 2 0.15088 0.846705 0.00352277
23880 2 0.174961 0.84409 0.0106635
23866 2 0.214655 0.85964 0.0144339
23920 2 0.23637 0.836325 0.00977936
23776 2 0.428015 0.84449 0.00773306
23995 2 0.475708 0.83611 0.0118345
23868 2 0.330568 0.887655 0.0100722
23942 2 0.354633 0.87409 0.0103611
23802 2 0.38171 0.87228 0.0148109
23869 2 0.45884 0.872645 0.00733241
23971 2 0.483293 0.884165 0.00730284
23964 2 0.0430797 0.89433 0.0137761
23854 2 0.0681138 0.89863 0.0150966
23855 2 0.210178 0.90263 0.00159248
23818 2 0.26047 0.897025 0.00338379
23900 2 0.284555 0.909685 0.00043914
23796 2 0.370485 0.9165 0.0092549
23888 2 0.435755 0.89207 0.00813231
23816 2 0.0219242 0.92144 0.0129391
23883 2 0.048066 0.94425 0.0136104
23793 2 0.100557 0.918255 0.0132804
24000 2 0.125794 0.920595 0.0131806
23947 2 0.164183 0.94276 0.00548254
23852 2 0.189424 0.93089 0.00348689
23921 2 0.346518 0.92646 0.0146001
23847 2 0.0269257 0.96995 0.00939507
23987 2 0.111953 0.96243 0.00870543
23864 2 0.263543 0.947225 0.00631362
23809 2 0.399835 0.96676 0.00732021
23903 2 0.15789 0.997955 0.0104558
23834 2 0.193185 0.988535 0.00491236
23898 2 0.31654 0.976155 0.00126101
23798 2 0.343273 0.974225 0.00556304
23841 2 0.375995 0.981825 0.0061848
23874 2 0.42395 0.979865 0.00736998
7833 2 0.0596683 0.00727755 0.0170867
7941 2 0.0861703 0.00383705 0.015591
7777 2 0.216967 0.019154 0.024216
7780 2 0.383012 0.00863365 0.029146
7842 2 0.407282 0.00409872 0.0232306
7779 2 0.0255898 0.05237 0.0257423
7840 2 0.158207 0.0439794 0.0224688
7778 2 0.18095 0.0279971 0.0152401
7975 2 0.304435 0.0507905 0.0226
7814 2 0.339948 0.0427059 0.018326
7948 2 0.375968 0.05414 0.0206199
7865 2 0.42669 0.0336545 0.0166448
7902 2 0.499858 0.0392129 0.0203536
7977 2 0.0499543 0.0566705 0.0201137
7863 2 0.097355 0.063707 0.0202692
7807 2 0.13485 0.061499 0.0207793
7940 2 0.177827 0.074985 0.0254506
7877 2 0.20779 0.0832665 0.024415
7775 2 0.28206 0.06937 0.0291828
7821 2 0.32508 0.080081 0.0261276
7799 2 0.410808 0.0708445 0.0231012
7844 2 0.00734945 0.0865125 0.0252516
7893 2 0.0349698 0.099755 0.0180933
7916 2 0.131531 0.109046 0.0283681
7805 2 0.38923 0.096328 0.0176097
7915 2 0.434225 0.089492 0.02037
7978 2 0.462855 0.086363 0.0219307
7960 2 0.176159 0.125052 0.024855
7829 2 0.200858 0.131892 0.0223306
7804 2 0.284135 0.128994 0.0243996
7936 2 0.36542 0.111387 0.0187616
1826 1 0.408913 0.128836 0.029234
7853 2 0.456595 0.137333 0.0154164
7992 2 0.0191239 0.142425 0.015835
7850 2 0.144706 0.146693 0.0177924
7917 2 0.262788 0.153437 0.0191387
7935 2 0.345993 0.142132 0.0247335
7831 2 0.429893 0.139139 0.0157334
5631 1 0.47392 0.16145 0.029781
7930 2 0.0397278 0.182768 0.0225087
7962 2 0.100357 0.191745 0.0172512
7891 2 0.123095 0.171366 0.0152271
7906 2 0.166831 0.169879 0.0172811
7806 2 0.19167 0.178215 0.0242982
7945 2 0.49784 0.16785 0.0227757
7923 2 0.0562037 0.220504 0.0195913
7803 2 0.145689 0.217651 0.0173458
7876 2 0.175681 0.2167 0.0261972
7823 2 0.229433 0.219448 0.0271309
7934 2 0.309758 0.209948 0.0152259
7827 2 0.338428 0.19777 0.0217638
7782 2 0.376363 0.20974 0.0174645
7931 2 0.401098 0.210548 0.0213875
7792 2 0.425253 0.1984 0.0242555
7858 2 0.458352 0.218681 0.02165
7896 2 0.118232 0.235255 0.0167369
7968 2 0.202214 0.223897 0.0302505
7904 2 0.325163 0.248947 0.0183447
5378 1 0.49309 0.241303 0.0294126
7897 2 0.0169849 0.255758 0.0282536
7787 2 0.135726 0.271607 0.020367
7939 2 0.159762 0.257385 0.0236439
5219 1 0.290673 0.251372 0.0285167
7932 2 0.365795 0.255077 0.0180672
7913 2 0.392933 0.257736 0.0217863
7909 2 0.41907 0.25064 0.0202616
7892 2 0.0395305 0.293343 0.0173111
5867 1 0.0909878 0.296349 0.02714
7951 2 0.237239 0.295229 0.0250299
7952 2 0.262188 0.290735 0.0251686
7957 2 0.309273 0.28457 0.0263429
7800 2 0.349313 0.294355 0.0157648
7983 2 0.38083 0.301339 0.0188865
7887 2 0.405745 0.304581 0.0166312
5030 1 0.46921 0.293214 0.0243844
7890 2 0.0156185 0.309585 0.0201791
7970 2 0.157355 0.32882 0.0278656
7946 2 0.280395 0.32574 0.0272035
7959 2 0.00023842 0.349832 0.0159939
7848 2 0.0300343 0.351452 0.01976
7773 2 0.196466 0.333925 0.0267411
7910 2 0.32596 0.345652 0.0238351
7958 2 0.365753 0.339204 0.0254603
7980 2 0.407473 0.357859 0.0211384
7926 2 0.089867 0.372852 0.0152238
7817 2 0.115608 0.374096 0.0187964
7999 2 0.187231 0.386599 0.0158536
7982 2 0.240026 0.384082 0.0172425
7870 2 0.277833 0.373405 0.0190315
7810 2 0.302388 0.36243 0.0238981
7990 2 0.151671 0.392232 0.0155742
7966 2 0.220384 0.410691 0.0256771
7912 2 0.39041 0.413968 0.0281965
7944 2 0.41407 0.406272 0.0203415
410 1 0.176569 0.426562 0.0271928
7895 2 0.242445 0.435546 0.0220066
7860 2 0.280562 0.433857 0.0261535
7928 2 0.322215 0.43468 0.0188228
7988 2 0.433795 0.438765 0.0187351
7856 2 0.462392 0.417315 0.0200105
7783 2 0.49751 0.419219 0.0190457
7919 2 0.0715392 0.4631 0.0160752
7820 2 0.0955322 0.464082 0.0288974
7969 2 0.141149 0.462983 0.0172227
7973 2 0.19497 0.460387 0.027185
7836 2 0.218153 0.45823 0.0172372
7943 2 0.301213 0.461252 0.0223597
7878 2 0.36783 0.45426 0.0268892
1797 1 0.412212 0.453906 0.0296083
7950 2 0.454113 0.467846 0.019129
7794 2 0.48216 0.459656 0.0204819
7789 2 0.0052404 0.49049 0.0167957
2041 1 0.174256 0.4879 0.0299869
371 1 0.254292 0.478538 0.0271231
7861 2 0.277828 0.49408 0.0235856
7875 2 0.329583 0.498633 0.0244765
23833 2 0.0596683 0.50728 0.0170867
23941 2 0.0861703 0.503835 0.015591
23777 2 0.216967 0.519155 0.024216
23780 2 0.383012 0.508635 0.029146
23842 2 0.407282 0.5041 0.0232306
23779 2 0.0255898 0.55237 0.0257423
23840 2 0.158207 0.54398 0.0224688
23778 2 0.18095 0.527995 0.0152401
23975 2 0.304435 0.55079 0.0226
23814 2 0.339948 0.542705 0.018326
23948 2 0.375968 0.55414 0.0206199
23865 2 0.42669 0.533655 0.0166448
23902 2 0.499858 0.539215 0.0203536
23977 2 0.0499543 0.55667 0.0201137
23863 2 0.097355 0.563705 0.0202692
23807 2 0.13485 0.5615 0.0207793
23940 2 0.177827 0.574985 0.0254506
23877 2 0.20779 0.583265 0.024415
23775 2 0.28206 0.56937 0.0291828
23821 2 0.32508 0.58008 0.0261276
23799 2 0.410808 0.570845 0.0231012
23844 2 0.00734945 0.58651 0.0252516
23893 2 0.0349698 0.599755 0.0180933
23916 2 0.131531 0.609045 0.0283681
23805 2 0.38923 0.59633 0.0176097
23915 2 0.434225 0.58949 0.02037
23978 2 0.462855 0.586365 0.0219307
23960 2 0.176159 0.62505 0.024855
23829 2 0.200858 0.63189 0.0223306
23804 2 0.284135 0.628995 0.0243996
23936 2 0.36542 0.611385 0.0187616
17826 1 0.408913 0.628835 0.029234
23853 2 0.456595 0.637335 0.0154164
23992 2 0.0191239 0.642425 0.015835
23850 2 0.144706 0.646695 0.0177924
23917 2 0.262788 0.653435 0.0191387
23935 2 0.345993 0.64213 0.0247335
23831 2 0.429893 0.63914 0.0157334
21631 1 0.47392 0.66145 0.029781
23930 2 0.0397278 0.68277 0.0225087
23962 2 0.100357 0.691745 0.0172512
23891 2 0.123095 0.671365 0.0152271
23906 2 0.166831 0.66988 0.0172811
23806 2 0.19167 0.678215 0.0242982
23945 2 0.49784 0.66785 0.0227757
23923 2 0.0562037 0.720505 0.0195913
23803 2 0.145689 0.71765 0.0173458
23876 2 0.175681 0.7167 0.0261972
23823 2 0.229433 0.71945 0.0271309
23934 2 0.309758 0.70995 0.0152259
23827 2 0.338428 0.69777 0.0217638
23782 2 0.376363 0.70974 0.0174645
23931 2 0.401098 0.71055 0.0213875
23792 2 0.425253 0.6984 0.0242555
23858 2 0.458352 0.71868 0.02165
23896 2 0.118232 0.735255 0.0167369
23968 2 0.202214 0.723895 0.0302505
23904 2 0.325163 0.748945 0.0183447
21378 1 0.49309 0.741305 0.0294126
23897 2 0.0169849 0.75576 0.0282536
23787 2 0.135726 0.771605 0.020367
23939 2 0.159762 0.757385 0.0236439
21219 1 0.290673 0.75137 0.0285167
23932 2 0.365795 0.755075 0.0180672
23913 2 0.392933 0.757735 0.0217863
23909 2 0.41907 0.75064 0.0202616
23892 2 0.0395305 0.793345 0.0173111
21867 1 0.0909878 0.79635 0.02714
23951 2 0.237239 0.79523 0.0250299
23952 2 0.262188 0.790735 0.0251686
23957 2 0.309273 0.78457 0.0263429
23800 2 0.349313 0.794355 0.0157648
23983 2 0.38083 0.80134 0.0188865
23887 2 0.405745 0.80458 0.0166312
21030 1 0.46921 0.793215 0.0243844
23890 2 0.0156185 0.809585 0.0201791
23970 2 0.157355 0.82882 0.0278656
23946 2 0.280395 0.82574 0.0272035
23959 2 0.00023842 0.84983 0.0159939
23848 2 0.0300343 0.85145 0.01976
23773 2 0.196466 0.833925 0.0267411
23910 2 0.32596 0.84565 0.0238351
23958 2 0.365753 0.839205 0.0254603
23980 2 0.407473 0.85786 0.0211384
23926 2 0.089867 0.87285 0.0152238
23817 2 0.115608 0.874095 0.0187964
23999 2 0.187231 0.8866 0.0158536
23982 2 0.240026 0.88408 0.0172425
23870 2 0.277833 0.873405 0.0190315
23810 2 0.302388 0.86243 0.0238981
23990 2 0.151671 0.89223 0.0155742
23966 2 0.220384 0.91069 0.0256771
23912 2 0.39041 0.91397 0.0281965
23944 2 0.41407 0.90627 0.0203415
16410 1 0.176569 0.92656 0.0271928
23895 2 0.242445 0.935545 0.0220066
23860 2 0.280562 0.933855 0.0261535
23928 2 0.322215 0.93468 0.0188228
23988 2 0.433795 0.938765 0.0187351
23856 2 0.462392 0.917315 0.0200105
23783 2 0.49751 0.91922 0.0190457
23919 2 0.0715392 0.9631 0.0160752
23820 2 0.0955322 0.96408 0.0288974
23969 2 0.141149 0.962985 0.0172227
23973 2 0.19497 0.960385 0.027185
23836 2 0.218153 0.95823 0.0172372
23943 2 0.301213 0.96125 0.0223597
23878 2 0.36783 0.95426 0.0268892
17797 1 0.412212 0.953905 0.0296083
23950 2 0.454113 0.967845 0.019129
23794 2 0.48216 0.959655 0.0204819
23789 2 0.0052404 0.99049 0.0167957
18041 1 0.174256 0.9879 0.0299869
16371 1 0.254292 0.97854 0.0271231
23861 2 0.277828 0.99408 0.0235856
23875 2 0.329583 0.998635 0.0244765
906 1 0.0182107 0.0097121 0.0372611
817 1 0.0861975 0.00363436 0.0424096
7955 2 0.108392 0.0133369 0.0307346
96 1 0.139018 0.0162435 0.031372
7755 1 0.243513 0.0175039 0.0425249
1041 1 0.30762 0.0069533 0.0364746
7933 2 0.461925 0.00980445 0.0311188
4841 1 0.069775 0.0423171 0.0428526
3244 1 0.196977 0.0422222 0.034534
5178 1 0.26671 0.0320711 0.0362789
2630 1 0.332083 0.0435536 0.0437896
5863 1 0.393873 0.0495649 0.0391811
3538 1 0.438345 0.0453501 0.0397973
7894 2 0.477332 0.0493017 0.0309467
3020 1 0.121229 0.0649385 0.0431843
376 1 0.231511 0.0586805 0.0342208
6380 1 0.257205 0.0770365 0.0305222
4684 1 0.354985 0.0726135 0.0325467
1441 1 0.031835 0.087724 0.0438936
2804 1 0.05679 0.085936 0.0451099
7808 2 0.0777293 0.088761 0.0305503
3825 1 0.106917 0.104059 0.0323217
5671 1 0.157214 0.08449 0.039834
1883 1 0.27278 0.106859 0.0451094
1107 1 0.302378 0.098092 0.0322333
623 1 0.369658 0.107008 0.0451325
5208 1 0.394493 0.0995165 0.0445669
4267 1 0.42213 0.0951625 0.0436641
397 1 0.449833 0.0888155 0.0448455
2928 1 0.00478917 0.134444 0.0413496
491 1 0.037282 0.1381 0.0352403
216 1 0.0625477 0.133499 0.0355704
7849 2 0.224227 0.124842 0.0310574
1819 1 0.323773 0.127708 0.0344734
7901 2 0.383348 0.138629 0.0304479
3519 1 0.455045 0.137518 0.0424697
4425 1 0.476525 0.112405 0.03969
2026 1 0.0846563 0.15781 0.040084
6949 1 0.109159 0.153533 0.0353181
1253 1 0.134871 0.150486 0.0433852
1535 1 0.159229 0.13932 0.0430599
3474 1 0.241551 0.162649 0.0327119
3234 1 0.304768 0.159691 0.0375899
4000 1 0.430255 0.156591 0.0408458
2477 1 0.152042 0.186096 0.0370713
4316 1 0.217589 0.177082 0.0340741
1935 1 0.27617 0.185406 0.0339545
4187 1 0.3787 0.184146 0.0403749
743 1 0.405065 0.183022 0.0440443
224 1 0.45564 0.187507 0.0424115
1007 1 0.00407075 0.201935 0.0412764
3786 1 0.0281458 0.214693 0.0391218
7667 1 0.0774705 0.207357 0.0440944
453 1 0.254935 0.205033 0.0436069
217 1 0.29803 0.207796 0.0390264
1158 1 0.322063 0.194782 0.0420433
2712 1 0.346383 0.216245 0.0452193
2188 1 0.478805 0.20608 0.040683
6262 1 0.0895125 0.248169 0.0351548
1973 1 0.14231 0.241148 0.0407844
7929 2 0.250105 0.248746 0.0316511
3526 1 0.382495 0.233489 0.0424174
2099 1 0.413143 0.230344 0.04394
4851 1 0.44773 0.242022 0.0450279
4769 1 0.042805 0.254024 0.0335177
1086 1 0.0673425 0.268662 0.0408737
675 1 0.228464 0.26242 0.0429336
6836 1 0.33794 0.274176 0.0370284
4673 1 0.360693 0.257831 0.0442765
139 1 0.471688 0.254516 0.0413083
7011 1 0.00205812 0.285251 0.0428223
6820 1 0.0287738 0.294171 0.0414909
4261 1 0.114472 0.282993 0.033109
2576 1 0.180784 0.293844 0.0307482
4170 1 0.2133 0.298591 0.032543
2389 1 0.279698 0.285226 0.0444736
3205 1 0.375155 0.29864 0.045177
519 1 0.407088 0.28074 0.0401537
76 1 0.432063 0.279475 0.0392782
1897 1 0.0635113 0.319738 0.0335051
5597 1 0.133573 0.316018 0.0324491
3455 1 0.32127 0.313799 0.0438826
1457 1 0.345345 0.32197 0.0378953
4166 1 0.393998 0.327573 0.0368305
584 1 0.418965 0.324466 0.0368508
1922 1 0.443682 0.331763 0.0377776
7749 1 0.042301 0.34038 0.0423574
3242 1 0.086178 0.342269 0.0363615
5443 1 0.11099 0.336135 0.0363279
5709 1 0.236429 0.340349 0.0370332
6975 1 0.2605 0.355497 0.0358147
4157 1 0.473458 0.341975 0.0383568
1552 1 0.49799 0.334577 0.0423893
2248 1 0.0183922 0.363579 0.0426365
2810 1 0.066229 0.372269 0.0377773
1502 1 0.10923 0.383801 0.0442038
3804 1 0.147263 0.362494 0.0444774
1980 1 0.168875 0.376187 0.0331753
2036 1 0.217074 0.370946 0.041543
7372 1 0.287907 0.379113 0.0438306
3477 1 0.35847 0.3809 0.0380315
3277 1 0.384108 0.372887 0.0420943
1784 1 0.4084 0.38485 0.0437949
313 1 0.430358 0.372951 0.0322657
930 1 0.45529 0.375424 0.0338293
2488 1 0.48886 0.380403 0.0333713
1421 1 0.0205077 0.413399 0.0437976
7191 1 0.0430523 0.390231 0.0405227
790 1 0.0883585 0.406417 0.0358083
7026 1 0.131919 0.399027 0.036462
2160 1 0.19854 0.415445 0.0387196
6223 1 0.240032 0.390693 0.0447922
1898 1 0.260478 0.404721 0.0309359
7886 2 0.30261 0.410996 0.0304348
6277 1 0.337205 0.407149 0.0374861
5919 1 0.0414735 0.440071 0.0393752
556 1 0.065327 0.425346 0.0380902
4733 1 0.113216 0.431998 0.0384603
2199 1 0.152467 0.4282 0.0342302
4442 1 0.44455 0.418849 0.0404642
6413 1 0.0190715 0.460064 0.0342943
5028 1 0.318053 0.461053 0.0424971
1820 1 0.342115 0.456109 0.0356782
816 1 0.0423875 0.496919 0.0356892
1189 1 0.0650147 0.476318 0.0411869
1406 1 0.124507 0.476357 0.0359016
1696 1 0.15189 0.476859 0.0404444
3790 1 0.231636 0.4742 0.0382093
7989 2 0.355518 0.497594 0.0314009
7440 1 0.43761 0.497875 0.0312534
5924 1 0.497248 0.480138 0.0416883
16906 1 0.0182107 0.50971 0.0372611
16817 1 0.0861975 0.503635 0.0424096
23955 2 0.108392 0.513335 0.0307346
16096 1 0.139018 0.516245 0.031372
23755 1 0.243513 0.517505 0.0425249
17041 1 0.30762 0.506955 0.0364746
23933 2 0.461925 0.509805 0.0311188
20841 1 0.069775 0.542315 0.0428526
19244 1 0.196977 0.54222 0.034534
21178 1 0.26671 0.53207 0.0362789
18630 1 0.332083 0.543555 0.0437896
21863 1 0.393873 0.549565 0.0391811
19538 1 0.438345 0.54535 0.0397973
23894 2 0.477332 0.5493 0.0309467
19020 1 0.121229 0.56494 0.0431843
16376 1 0.231511 0.55868 0.0342208
22380 1 0.257205 0.577035 0.0305222
20684 1 0.354985 0.572615 0.0325467
17441 1 0.031835 0.587725 0.0438936
18804 1 0.05679 0.585935 0.0451099
23808 2 0.0777293 0.58876 0.0305503
19825 1 0.106917 0.60406 0.0323217
21671 1 0.157214 0.58449 0.039834
17883 1 0.27278 0.60686 0.0451094
17107 1 0.302378 0.59809 0.0322333
16623 1 0.369658 0.60701 0.0451325
21208 1 0.394493 0.599515 0.0445669
20267 1 0.42213 0.59516 0.0436641
16397 1 0.449833 0.588815 0.0448455
18928 1 0.00478917 0.634445 0.0413496
16491 1 0.037282 0.6381 0.0352403
16216 1 0.0625477 0.6335 0.0355704
23849 2 0.224227 0.62484 0.0310574
17819 1 0.323773 0.627705 0.0344734
23901 2 0.383348 0.63863 0.0304479
19519 1 0.455045 0.63752 0.0424697
20425 1 0.476525 0.612405 0.03969
18026 1 0.0846563 0.65781 0.040084
22949 1 0.109159 0.653535 0.0353181
17253 1 0.134871 0.650485 0.0433852
17535 1 0.159229 0.63932 0.0430599
19474 1 0.241551 0.66265 0.0327119
19234 1 0.304768 0.65969 0.0375899
20000 1 0.430255 0.65659 0.0408458
18477 1 0.152042 0.686095 0.0370713
20316 1 0.217589 0.67708 0.0340741
17935 1 0.27617 0.685405 0.0339545
20187 1 0.3787 0.684145 0.0403749
16743 1 0.405065 0.68302 0.0440443
16224 1 0.45564 0.687505 0.0424115
17007 1 0.00407075 0.701935 0.0412764
19786 1 0.0281458 0.71469 0.0391218
23667 1 0.0774705 0.707355 0.0440944
16453 1 0.254935 0.705035 0.0436069
16217 1 0.29803 0.707795 0.0390264
17158 1 0.322063 0.69478 0.0420433
18712 1 0.346383 0.716245 0.0452193
18188 1 0.478805 0.70608 0.040683
22262 1 0.0895125 0.74817 0.0351548
17973 1 0.14231 0.74115 0.0407844
23929 2 0.250105 0.748745 0.0316511
19526 1 0.382495 0.73349 0.0424174
18099 1 0.413143 0.730345 0.04394
20851 1 0.44773 0.74202 0.0450279
20769 1 0.042805 0.754025 0.0335177
17086 1 0.0673425 0.76866 0.0408737
16675 1 0.228464 0.76242 0.0429336
22836 1 0.33794 0.774175 0.0370284
20673 1 0.360693 0.75783 0.0442765
16139 1 0.471688 0.754515 0.0413083
23011 1 0.00205812 0.78525 0.0428223
22820 1 0.0287738 0.79417 0.0414909
20261 1 0.114472 0.782995 0.033109
18576 1 0.180784 0.793845 0.0307482
20170 1 0.2133 0.79859 0.032543
18389 1 0.279698 0.785225 0.0444736
19205 1 0.375155 0.79864 0.045177
16519 1 0.407088 0.78074 0.0401537
16076 1 0.432063 0.779475 0.0392782
17897 1 0.0635113 0.81974 0.0335051
21597 1 0.133573 0.81602 0.0324491
19455 1 0.32127 0.8138 0.0438826
17457 1 0.345345 0.82197 0.0378953
20166 1 0.393998 0.827575 0.0368305
16584 1 0.418965 0.824465 0.0368508
17922 1 0.443682 0.831765 0.0377776
23749 1 0.042301 0.84038 0.0423574
19242 1 0.086178 0.84227 0.0363615
21443 1 0.11099 0.836135 0.0363279
21709 1 0.236429 0.84035 0.0370332
22975 1 0.2605 0.855495 0.0358147
20157 1 0.473458 0.841975 0.0383568
17552 1 0.49799 0.834575 0.0423893
18248 1 0.0183922 0.86358 0.0426365
18810 1 0.066229 0.87227 0.0377773
17502 1 0.10923 0.8838 0.0442038
19804 1 0.147263 0.862495 0.0444774
17980 1 0.168875 0.876185 0.0331753
18036 1 0.217074 0.870945 0.041543
23372 1 0.287907 0.879115 0.0438306
19477 1 0.35847 0.8809 0.0380315
19277 1 0.384108 0.872885 0.0420943
17784 1 0.4084 0.88485 0.0437949
16313 1 0.430358 0.87295 0.0322657
16930 1 0.45529 0.875425 0.0338293
18488 1 0.48886 0.8804 0.0333713
17421 1 0.0205077 0.9134 0.0437976
23191 1 0.0430523 0.89023 0.0405227
16790 1 0.0883585 0.906415 0.0358083
23026 1 0.131919 0.899025 0.036462
18160 1 0.19854 0.915445 0.0387196
22223 1 0.240032 0.890695 0.0447922
17898 1 0.260478 0.90472 0.0309359
23886 2 0.30261 0.910995 0.0304348
22277 1 0.337205 0.90715 0.0374861
21919 1 0.0414735 0.94007 0.0393752
16556 1 0.065327 0.925345 0.0380902
20733 1 0.113216 0.932 0.0384603
18199 1 0.152467 0.9282 0.0342302
20442 1 0.44455 0.91885 0.0404642
22413 1 0.0190715 0.960065 0.0342943
21028 1 0.318053 0.96105 0.0424971
17820 1 0.342115 0.95611 0.0356782
16816 1 0.0423875 0.99692 0.0356892
17189 1 0.0650147 0.97632 0.0411869
17406 1 0.124507 0.976355 0.0359016
17696 1 0.15189 0.97686 0.0404444
19790 1 0.231636 0.9742 0.0382093
23989 2 0.355518 0.997595 0.0314009
23440 1 0.43761 0.997875 0.0312534
21924 1 0.497248 0.98014 0.0416883
2354 1 0.136908 0.0019578 0.057172
5412 1 0.164805 0.0232053 0.0460388
5105 1 0.188092 0.0056055 0.0501973
2587 1 0.219812 0.020806 0.0508586
1095 1 0.287345 0.0199451 0.0505258
4795 1 0.394995 0.0154232 0.0587828
972 1 0.422233 0.0147757 0.0523557
2917 1 0.446025 0.0096882 0.0601621
590 1 0.475873 0.00544515 0.0532907
1088 1 0.020489 0.0477755 0.0544703
475 1 0.0444633 0.0421162 0.0470664
3407 1 0.097578 0.0492457 0.0459522
883 1 0.144497 0.0492182 0.0530974
523 1 0.30751 0.0503115 0.0498578
3523 1 0.37127 0.0356265 0.0478799
1905 1 0.461172 0.0458853 0.0513174
6090 1 0.497868 0.0280401 0.0493398
1719 1 0.180537 0.0604115 0.0522286
7618 1 0.206357 0.0595185 0.0598516
7575 1 0.257705 0.0609165 0.0559535
1917 1 0.285053 0.0685795 0.0563836
577 1 0.356605 0.0695795 0.0597173
6324 1 0.00593483 0.088328 0.0520934
6283 1 0.0837735 0.0859825 0.0565665
2104 1 0.120884 0.105407 0.0589179
6633 1 0.145771 0.11008 0.0593314
5706 1 0.198773 0.101454 0.047618
1752 1 0.223573 0.093268 0.0518406
2612 1 0.247114 0.110732 0.0470849
1794 1 0.327985 0.0905045 0.052172
3211 1 0.0291243 0.126682 0.0604555
291 1 0.0985338 0.126352 0.0547256
3620 1 0.177883 0.120568 0.0590091
4248 1 0.348455 0.116828 0.058314
3063 1 0.116692 0.163768 0.0603461
4743 1 0.199176 0.151442 0.0469937
7563 1 0.23038 0.144977 0.0548093
1209 1 0.262163 0.152002 0.0471138
4948 1 0.286523 0.164765 0.0557277
1020 1 0.333738 0.156352 0.0537654
691 1 0.358488 0.158448 0.0480612
990 1 0.387593 0.146938 0.0568212
6284 1 0.412513 0.143051 0.0582851
338 1 0.475125 0.155901 0.0563965
3414 1 0.021951 0.169331 0.0482465
3385 1 0.0678767 0.170131 0.0588155
7506 1 0.177562 0.182963 0.046315
511 1 0.052694 0.214486 0.0461836
1043 1 0.101689 0.195616 0.0473828
4188 1 0.130259 0.199242 0.0481918
7554 1 0.232575 0.217135 0.0537259
2131 1 0.433088 0.202835 0.0505564
4984 1 0.00681367 0.241738 0.0573447
3943 1 0.11329 0.239961 0.046839
4440 1 0.166039 0.235731 0.048726
6351 1 0.276775 0.229142 0.0474729
3621 1 0.319692 0.244083 0.0456733
2448 1 0.049484 0.260004 0.0592209
4130 1 0.180748 0.274181 0.0554748
1036 1 0.203852 0.26181 0.0476282
2605 1 0.101139 0.302638 0.0531861
2275 1 0.130991 0.286175 0.0538246
377 1 0.159235 0.295687 0.0478483
211 1 0.235187 0.304459 0.0557666
5086 1 0.303888 0.281268 0.0524747
284 1 0.455355 0.290921 0.0468575
1815 1 0.479563 0.300036 0.0514206
1509 1 0.19664 0.312082 0.0511814
710 1 0.25913 0.312192 0.0492416
1789 1 0.29816 0.332765 0.0457152
502 1 0.173212 0.34413 0.0569958
678 1 0.2745 0.347792 0.0592963
793 1 0.192242 0.368714 0.045455
2592 1 0.316668 0.366807 0.0459731
2639 1 0.340682 0.361327 0.0536972
6114 1 0.428613 0.380652 0.0597116
7099 1 0.486675 0.366275 0.059218
7403 1 0.161521 0.401838 0.0548484
2709 1 0.269658 0.396888 0.0594598
3824 1 0.318785 0.41478 0.0551404
2252 1 0.471165 0.40608 0.046422
2312 1 0.225129 0.429681 0.0499557
927 1 0.249124 0.442962 0.0475362
6666 1 0.273855 0.443833 0.0514271
4190 1 0.29422 0.416928 0.0599967
3713 1 0.372108 0.420009 0.0461946
249 1 0.396295 0.426395 0.0561787
6861 1 0.421378 0.426235 0.0497281
1628 1 0.49582 0.423684 0.0462968
1384 1 0.0864348 0.447745 0.0522924
1548 1 0.180177 0.457168 0.0502153
167 1 0.294482 0.471882 0.0493658
173 1 0.359195 0.459616 0.0553276
6263 1 0.383508 0.467406 0.0471854
2144 1 0.451647 0.465764 0.0457865
825 1 0.476063 0.455102 0.0463965
2332 1 0.045087 0.473079 0.0591295
2414 1 0.208403 0.476622 0.0480559
2060 1 0.342155 0.496987 0.0541274
1411 1 0.407768 0.473407 0.0538619
18354 1 0.136908 0.50196 0.057172
21412 1 0.164805 0.523205 0.0460388
21105 1 0.188092 0.505605 0.0501973
18587 1 0.219812 0.520805 0.0508586
17095 1 0.287345 0.519945 0.0505258
20795 1 0.394995 0.515425 0.0587828
16972 1 0.422233 0.514775 0.0523557
18917 1 0.446025 0.50969 0.0601621
16590 1 0.475873 0.505445 0.0532907
17088 1 0.020489 0.547775 0.0544703
16475 1 0.0444633 0.542115 0.0470664
19407 1 0.097578 0.549245 0.0459522
16883 1 0.144497 0.54922 0.0530974
16523 1 0.30751 0.55031 0.0498578
19523 1 0.37127 0.535625 0.0478799
17905 1 0.461172 0.545885 0.0513174
22090 1 0.497868 0.52804 0.0493398
17719 1 0.180537 0.56041 0.0522286
23618 1 0.206357 0.55952 0.0598516
23575 1 0.257705 0.560915 0.0559535
17917 1 0.285053 0.56858 0.0563836
16577 1 0.356605 0.56958 0.0597173
22324 1 0.00593483 0.58833 0.0520934
22283 1 0.0837735 0.58598 0.0565665
18104 1 0.120884 0.605405 0.0589179
22633 1 0.145771 0.61008 0.0593314