ITEM: TIMESTEP
0
ITEM: NUMBER OF ATOMS
0
ITEM: BOX BOUNDS fm fm fm
-3.0000000000000000e+01 3.0000000000000000e+01
-3.0000000000000000e+01 3.0000000000000000e+01
0.0000000000000000e+00 6.0000000000000000e+01
ITEM: ATOMS id type xs ys zs
ITEM: TIMESTEP
1000
ITEM: NUMBER OF ATOMS
16
ITEM: BOX BOUNDS fm fm fm
-3.0000000000000000e+01 3.0000000000000000e+01
-3.0000000000000000e+01 3.0000000000000000e+01
0.0000000000000000e+00 6.0000000000000000e+01
ITEM: ATOMS id type xs ys zs
1 1 0.459553 0.476245 0.962417
2 1 0.481588 0.455599 0.952671
3 1 0.460308 0.459983 0.952864
4 2 0.500813 0.525415 0.951873
5 2 0.500427 0.549701 0.967287
6 2 0.454846 0.537721 0.962853
7 2 0.481849 0.524592 0.960499
8 2 0.471269 0.549555 0.973334
9 2 0.480963 0.548033 0.949401
10 2 0.458358 0.517196 0.95699
11 1 0.534147 0.534164 0.957413
12 1 0.533761 0.549402 0.979781
13 1 0.533557 0.526768 0.974782
14 2 0.519919 0.453321 0.979395
15 2 0.518376 0.480943 0.982835
16 2 0.517562 0.457072 0.959675
ITEM: TIMESTEP
2000
ITEM: NUMBER OF ATOMS
16
ITEM: BOX BOUNDS fm fm fm
-3.0000000000000000e+01 3.0000000000000000e+01
-3.0000000000000000e+01 3.0000000000000000e+01
0.0000000000000000e+00 6.0000000000000000e+01
ITEM: ATOMS id type xs ys zs
9 2 0.480963 0.548033 0.945157
3 1 0.460308 0.459983 0.948835
2 1 0.481588 0.455599 0.948631
16 2 0.517562 0.457072 0.956111
10 2 0.458358 0.517196 0.953235
7 2 0.481849 0.524592 0.956995
4 2 0.500813 0.525415 0.947782
11 1 0.534147 0.534164 0.953688
1 1 0.459553 0.476245 0.959058
6 2 0.454846 0.537721 0.959528
5 2 0.500427 0.549701 0.96433
14 2 0.519919 0.453321 0.977866
13 1 0.533557 0.526768 0.972589
8 2 0.471269 0.549555 0.970973
12 1 0.533761 0.549402 0.978323
15 2 0.518376 0.480943 0.98221
ITEM: TIMESTEP
3000
ITEM: NUMBER OF ATOMS
16
ITEM: BOX BOUNDS fm fm fm
-3.0000000000000000e+01 3.0000000000000000e+01
-3.0000000000000000e+01 3.0000000000000000e+01
0.0000000000000000e+00 6.0000000000000000e+01
ITEM: ATOMS id type xs ys zs
3 1 0.460308 0.459983 0.944557
2 1 0.481588 0.455599 0.94434
4 2 0.500813 0.525415 0.943441
9 2 0.480963 0.548033 0.940663
16 2 0.517562 0.457072 0.952296
1 1 0.459553 0.476245 0.955449
10 2 0.458358 0.517196 0.949231
7 2 0.481849 0.524592 0.95324
6 2 0.454846 0.537721 0.955953
11 1 0.534147 0.534164 0.949713
5 2 0.500427 0.549701 0.961122
14 2 0.519919 0.453321 0.976088
13 1 0.533557 0.526768 0.970146
8 2 0.471269 0.549555 0.968362
12 1 0.533761 0.549402 0.976615
15 2 0.518376 0.480943 0.981336
ITEM: TIMESTEP
4000
ITEM: NUMBER OF ATOMS
16
ITEM: BOX BOUNDS fm fm fm
-3.0000000000000000e+01 3.0000000000000000e+01
-3.0000000000000000e+01 3.0000000000000000e+01
0.0000000000000000e+00 6.0000000000000000e+01
ITEM: ATOMS id type xs ys zs
3 1 0.460308 0.459983 0.940029
2 1 0.481588 0.455599 0.9398
10 2 0.458358 0.517196 0.944976
4 2 0.500813 0.525415 0.938849
11 1 0.534147 0.534164 0.945488
9 2 0.480963 0.548033 0.935919
16 2 0.517562 0.457072 0.948232
1 1 0.459553 0.476245 0.95159
7 2 0.481849 0.524592 0.949236
6 2 0.454846 0.537721 0.952128
13 1 0.533557 0.526768 0.967453
8 2 0.471269 0.549555 0.965501
5 2 0.500427 0.549701 0.957664
14 2 0.519919 0.453321 0.974059
12 1 0.533761 0.549402 0.974657
15 2 0.518376 0.480943 0.980212
ITEM: TIMESTEP
5000
ITEM: NUMBER OF ATOMS
16
ITEM: BOX BOUNDS fm fm fm
-3.0000000000000000e+01 3.0000000000000000e+01
-3.0000000000000000e+01 3.0000000000000000e+01
0.0000000000000000e+00 6.0000000000000000e+01
ITEM: ATOMS id type xs ys zs
3 1 0.460308 0.459983 0.93525
2 1 0.481588 0.455599 0.935009
4 2 0.500813 0.525415 0.934008
9 2 0.480963 0.548033 0.930925
16 2 0.517562 0.457072 0.943917
10 2 0.458358 0.517196 0.940472
7 2 0.481849 0.524592 0.944982
11 1 0.534147 0.534164 0.941013
1 1 0.459553 0.476245 0.947481
6 2 0.454846 0.537721 0.948053
5 2 0.500427 0.549701 0.953957
13 1 0.533557 0.526768 0.96451
8 2 0.471269 0.549555 0.96239
14 2 0.519919 0.453321 0.971781
15 2 0.518376 0.480943 0.978837
12 1 0.533761 0.549402 0.972449
ITEM: TIMESTEP
6000
ITEM: NUMBER OF ATOMS
16
ITEM: BOX BOUNDS fm fm fm
-3.0000000000000000e+01 3.0000000000000000e+01
-3.0000000000000000e+01 3.0000000000000000e+01
0.0000000000000000e+00 6.0000000000000000e+01
ITEM: ATOMS id type xs ys zs
3 1 0.460308 0.459983 0.930222
2 1 0.481588 0.455599 0.929968
10 2 0.458358 0.517196 0.935717
4 2 0.500813 0.525415 0.928917
9 2 0.480963 0.548033 0.925681
16 2 0.517562 0.457072 0.939353
1 1 0.459553 0.476245 0.943122
7 2 0.481849 0.524592 0.940478
6 2 0.454846 0.537721 0.943728
11 1 0.534147 0.534164 0.936287
5 2 0.500427 0.549701 0.949999
13 1 0.533557 0.526768 0.961317
8 2 0.471269 0.549555 0.959029
14 2 0.519919 0.453321 0.969252
15 2 0.518376 0.480943 0.977213
12 1 0.533761 0.549402 0.969991
ITEM: TIMESTEP
7000
ITEM: NUMBER OF ATOMS
16
ITEM: BOX BOUNDS fm fm fm
-3.0000000000000000e+01 3.0000000000000000e+01
-3.0000000000000000e+01 3.0000000000000000e+01
0.0000000000000000e+00 6.0000000000000000e+01
ITEM: ATOMS id type xs ys zs
3 1 0.460308 0.459983 0.924944
2 1 0.481588 0.455599 0.924678
4 2 0.500813 0.525415 0.923576
9 2 0.480963 0.548033 0.920187
16 2 0.517562 0.457072 0.934539
10 2 0.458358 0.517196 0.930713
7 2 0.481849 0.524592 0.935724
11 1 0.534147 0.534164 0.931312
1 1 0.459553 0.476245 0.938513
6 2 0.454846 0.537721 0.939152
5 2 0.500427 0.549701 0.945792
8 2 0.471269 0.549555 0.955418
14 2 0.519919 0.453321 0.966474
13 1 0.533557 0.526768 0.957875
12 1 0.533761 0.549402 0.967284
15 2 0.518376 0.480943 0.975339
ITEM: TIMESTEP
8000
ITEM: NUMBER OF ATOMS
16
ITEM: BOX BOUNDS fm fm fm
-3.0000000000000000e+01 3.0000000000000000e+01
-3.0000000000000000e+01 3.0000000000000000e+01
0.0000000000000000e+00 6.0000000000000000e+01
ITEM: ATOMS id type xs ys zs
3 1 0.460308 0.459983 0.919415
2 1 0.481588 0.455599 0.919137
4 2 0.500813 0.525415 0.917984
9 2 0.480963 0.548033 0.914442
16 2 0.517562 0.457072 0.929474
1 1 0.459553 0.476245 0.933654
10 2 0.458358 0.517196 0.925459
7 2 0.481849 0.524592 0.93072
6 2 0.454846 0.537721 0.934327
11 1 0.534147 0.534164 0.926087
5 2 0.500427 0.549701 0.941334
13 1 0.533557 0.526768 0.954182
8 2 0.471269 0.549555 0.951557
14 2 0.519919 0.453321 0.963445
12 1 0.533761 0.549402 0.964326
15 2 0.518376 0.480943 0.973214
ITEM: TIMESTEP
9000
ITEM: NUMBER OF ATOMS
16
ITEM: BOX BOUNDS fm fm fm
-3.0000000000000000e+01 3.0000000000000000e+01
-3.0000000000000000e+01 3.0000000000000000e+01
0.0000000000000000e+00 6.0000000000000000e+01
ITEM: ATOMS id type xs ys zs
3 1 0.460308 0.459983 0.913637
2 1 0.481588 0.455599 0.913347
4 2 0.500813 0.525415 0.912143
9 2 0.480963 0.548033 0.908448
16 2 0.517562 0.457072 0.92416
10 2 0.458358 0.517196 0.919954
7 2 0.481849 0.524592 0.925466
11 1 0.534147 0.534164 0.920612
1 1 0.459553 0.476245 0.928545
6 2 0.454846 0.537721 0.929252
5 2 0.500427 0.549701 0.936626
13 1 0.533557 0.526768 0.950239
8 2 0.471269 0.549555 0.947446
14 2 0.519919 0.453321 0.960167
12 1 0.533761 0.549402 0.961118
15 2 0.518376 0.480943 0.97084
ITEM: TIMESTEP
10000
ITEM: NUMBER OF ATOMS
16
ITEM: BOX BOUNDS fm fm fm
-3.0000000000000000e+01 3.0000000000000000e+01
-3.0000000000000000e+01 3.0000000000000000e+01
0.0000000000000000e+00 6.0000000000000000e+01
ITEM: ATOMS id type xs ys zs
9 2 0.480963 0.548033 0.902204
3 1 0.460308 0.459983 0.907609
2 1 0.481588 0.455599 0.907306
10 2 0.458358 0.517196 0.9142
4 2 0.500813 0.525415 0.906052
16 2 0.517562 0.457072 0.918595
1 1 0.459553 0.476245 0.923186
7 2 0.481849 0.524592 0.919962
6 2 0.454846 0.537721 0.923927
11 1 0.534147 0.534164 0.914887
5 2 0.500427 0.549701 0.931669
8 2 0.471269 0.549555 0.943085
13 1 0.533557 0.526768 0.946046
14 2 0.519919 0.453321 0.956639
12 1 0.533761 0.549402 0.95766
15 2 0.518376 0.480943 0.968216
ITEM: TIMESTEP
11000
ITEM: NUMBER OF ATOMS
16
ITEM: BOX BOUNDS fm fm fm
-3.0000000000000000e+01 3.0000000000000000e+01
-3.0000000000000000e+01 3.0000000000000000e+01
0.0000000000000000e+00 6.0000000000000000e+01
ITEM: ATOMS id type xs ys zs
3 1 0.460308 0.459983 0.901331
2 1 0.481588 0.455599 0.901015
4 2 0.500813 0.525415 0.899711
9 2 0.480963 0.548033 0.89571
16 2 0.517562 0.457072 0.912781
10 2 0.458358 0.517196 0.908195
7 2 0.481849 0.524592 0.914208
11 1 0.534147 0.534164 0.908912
1 1 0.459553 0.476245 0.917577
6 2 0.454846 0.537721 0.918352
5 2 0.500427 0.549701 0.926461
13 1 0.533557 0.526768 0.941603
8 2 0.471269 0.549555 0.938474
14 2 0.519919 0.453321 0.95286
12 1 0.533761 0.549402 0.953952
15 2 0.518376 0.480943 0.965341
ITEM: TIMESTEP
12000
ITEM: NUMBER OF ATOMS
16
ITEM: BOX BOUNDS fm fm fm
-3.0000000000000000e+01 3.0000000000000000e+01
-3.0000000000000000e+01 3.0000000000000000e+01
0.0000000000000000e+00 6.0000000000000000e+01
ITEM: ATOMS id type xs ys zs
4 2 0.500813 0.525415 0.893119
9 2 0.480963 0.548033 0.888966
3 1 0.460308 0.459983 0.894802
2 1 0.481588 0.455599 0.894475
10 2 0.458358 0.517196 0.901941
11 1 0.534147 0.534164 0.902687
16 2 0.517562 0.457072 0.906716
1 1 0.459553 0.476245 0.911718
7 2 0.481849 0.524592 0.908204
6 2 0.454846 0.537721 0.912527
5 2 0.500427 0.549701 0.921004
8 2 0.471269 0.549555 0.933612
13 1 0.533557 0.526768 0.93691
14 2 0.519919 0.453321 0.948832
12 1 0.533761 0.549402 0.949994
15 2 0.518376 0.480943 0.962217
ITEM: TIMESTEP
13000
ITEM: NUMBER OF ATOMS
16
ITEM: BOX BOUNDS fm fm fm
-3.0000000000000000e+01 3.0000000000000000e+01
-3.0000000000000000e+01 3.0000000000000000e+01
0.0000000000000000e+00 6.0000000000000000e+01
ITEM: ATOMS id type xs ys zs
9 2 0.480963 0.548033 0.881972
3 1 0.460308 0.459983 0.888024
2 1 0.481588 0.455599 0.887684
4 2 0.500813 0.525415 0.886278
16 2 0.517562 0.457072 0.900402
10 2 0.458358 0.517196 0.895436
7 2 0.481849 0.524592 0.90195
11 1 0.534147 0.534164 0.896212
1 1 0.459553 0.476245 0.905609
6 2 0.454846 0.537721 0.906452
5 2 0.500427 0.549701 0.915296
13 1 0.533557 0.526768 0.931967
8 2 0.471269 0.549555 0.928501
14 2 0.519919 0.453321 0.944553
12 1 0.533761 0.549402 0.945786
15 2 0.518376 0.480943 0.958843
ITEM: TIMESTEP
14000
ITEM: NUMBER OF ATOMS
16
ITEM: BOX BOUNDS fm fm fm
-3.0000000000000000e+01 3.0000000000000000e+01
-3.0000000000000000e+01 3.0000000000000000e+01
0.0000000000000000e+00 6.0000000000000000e+01
ITEM: ATOMS id type xs ys zs
3 1 0.460308 0.459983 0.880996
2 1 0.481588 0.455599 0.880644
4 2 0.500813 0.525415 0.879187
9 2 0.480963 0.548033 0.874728
10 2 0.458358 0.517196 0.888682
11 1 0.534147 0.534164 0.889486
16 2 0.517562 0.457072 0.893837
1 1 0.459553 0.476245 0.89925
7 2 0.481849 0.524592 0.895446
6 2 0.454846 0.537721 0.900127
5 2 0.500427 0.549701 0.909338
8 2 0.471269 0.549555 0.92314
13 1 0.533557 0.526768 0.926774
14 2 0.519919 0.453321 0.940025
12 1 0.533761 0.549402 0.941329
15 2 0.518376 0.480943 0.955218
ITEM: TIMESTEP
15000
ITEM: NUMBER OF ATOMS
16
ITEM: BOX BOUNDS fm fm fm
-3.0000000000000000e+01 3.0000000000000000e+01
-3.0000000000000000e+01 3.0000000000000000e+01
0.0000000000000000e+00 6.0000000000000000e+01
ITEM: ATOMS id type xs ys zs
3 1 0.460308 0.459983 0.873717
2 1 0.481588 0.455599 0.873353
4 2 0.500813 0.525415 0.871846
9 2 0.480963 0.548033 0.867234
10 2 0.458358 0.517196 0.881678
11 1 0.534147 0.534164 0.882511
16 2 0.517562 0.457072 0.887023
1 1 0.459553 0.476245 0.892641
7 2 0.481849 0.524592 0.888692
6 2 0.454846 0.537721 0.893551
5 2 0.500427 0.549701 0.903131
13 1 0.533557 0.526768 0.921331
8 2 0.471269 0.549555 0.917529
14 2 0.519919 0.453321 0.935246
12 1 0.533761 0.549402 0.936621
15 2 0.518376 0.480943 0.951344
ITEM: TIMESTEP
16000
ITEM: NUMBER OF ATOMS
16
ITEM: BOX BOUNDS fm fm fm
-3.0000000000000000e+01 3.0000000000000000e+01
-3.0000000000000000e+01 3.0000000000000000e+01
0.0000000000000000e+00 6.0000000000000000e+01
ITEM: ATOMS id type xs ys zs
9 2 0.480963 0.548033 0.85949
3 1 0.460308 0.459983 0.866189
2 1 0.481588 0.455599 0.865812
4 2 0.500813 0.525415 0.864254
16 2 0.517562 0.457072 0.879959
10 2 0.458358 0.517196 0.874423
7 2 0.481849 0.524592 0.881687
11 1 0.534147 0.534164 0.875286
1 1 0.459553 0.476245 0.885782
6 2 0.454846 0.537721 0.886726
5 2 0.500427 0.549701 0.896673
8 2 0.471269 0.549555 0.911668
13 1 0.533557 0.526768 0.915639
14 2 0.519919 0.453321 0.930218
12 1 0.533761 0.549402 0.931663
15 2 0.518376 0.480943 0.94722
ITEM: TIMESTEP
17000
ITEM: NUMBER OF ATOMS
32
ITEM: BOX BOUNDS fm fm fm
-3.0000000000000000e+01 3.0000000000000000e+01
-3.0000000000000000e+01 3.0000000000000000e+01
0.0000000000000000e+00 6.0000000000000000e+01
ITEM: ATOMS id type xs ys zs
9 2 0.480963 0.548033 0.851495
3 1 0.460308 0.459983 0.858411
2 1 0.481588 0.455599 0.858022
4 2 0.500813 0.525415 0.856413
16 2 0.517562 0.457072 0.872644
10 2 0.458358 0.517196 0.866919
11 1 0.534147 0.534164 0.867811
1 1 0.459553 0.476245 0.878673
7 2 0.481849 0.524592 0.874433
6 2 0.454846 0.537721 0.879651
5 2 0.500427 0.549701 0.889965
13 1 0.533557 0.526768 0.909696
8 2 0.471269 0.549555 0.905557
14 2 0.519919 0.453321 0.924939
12 1 0.533761 0.549402 0.926455
15 2 0.518376 0.480943 0.942845
17 1 0.466651 0.465318 0.982863
18 1 0.467119 0.468296 0.964336
19 1 0.462537 0.451587 0.959847
20 2 0.498361 0.549982 0.963199
21 2 0.484218 0.53637 0.978212
22 2 0.461889 0.521791 0.980124
23 2 0.509382 0.537495 0.972296
24 2 0.468306 0.516767 0.964298
25 2 0.471169 0.546233 0.951394
26 2 0.459877 0.549444 0.977262
27 1 0.545761 0.534433 0.971872
28 1 0.527767 0.549101 0.964105
29 1 0.516968 0.517753 0.959234
30 2 0.533043 0.454399 0.981681
31 2 0.522708 0.459122 0.95542
32 2 0.535075 0.479771 0.982355
ITEM: TIMESTEP
18000
ITEM: NUMBER OF ATOMS
32
ITEM: BOX BOUNDS fm fm fm
-3.0000000000000000e+01 3.0000000000000000e+01
-3.0000000000000000e+01 3.0000000000000000e+01
0.0000000000000000e+00 6.0000000000000000e+01
ITEM: ATOMS id type xs ys zs
3 1 0.460308 0.459983 0.850382
2 1 0.481588 0.455599 0.849981
4 2 0.500813 0.525415 0.848322
9 2 0.480963 0.548033 0.843251
10 2 0.458358 0.517196 0.859164
11 1 0.534147 0.534164 0.860086
16 2 0.517562 0.457072 0.86508
1 1 0.459553 0.476245 0.871314
7 2 0.481849 0.524592 0.866929
6 2 0.454846 0.537721 0.872326
5 2 0.500427 0.549701 0.883008
13 1 0.533557 0.526768 0.903503
8 2 0.471269 0.549555 0.899196
14 2 0.519919 0.453321 0.919411
12 1 0.533761 0.549402 0.920997
15 2 0.518376 0.480943 0.938221
19 1 0.462537 0.451587 0.956295
31 2 0.522708 0.459122 0.951559
29 1 0.516968 0.517753 0.955638
25 2 0.471169 0.546233 0.947273
18 1 0.467119 0.468296 0.961129
24 2 0.468306 0.516767 0.961088
20 2 0.498361 0.549982 0.959901
28 1 0.527767 0.549101 0.96088
22 2 0.461889 0.521791 0.978732
21 2 0.484218 0.53637 0.976486
23 2 0.509382 0.537495 0.969822
27 1 0.545761 0.534433 0.969353
26 2 0.459877 0.549444 0.975394
30 2 0.533043 0.454399 0.980647
17 1 0.466651 0.465318 0.982253
32 2 0.535075 0.479771 0.981531
ITEM: TIMESTEP
19000
ITEM: NUMBER OF ATOMS
32
ITEM: BOX BOUNDS fm fm fm
-3.0000000000000000e+01 3.0000000000000000e+01
-3.0000000000000000e+01 3.0000000000000000e+01
0.0000000000000000e+00 6.0000000000000000e+01
ITEM: ATOMS id type xs ys zs
3 1 0.460308 0.459983 0.842104
2 1 0.481588 0.455599 0.841691
4 2 0.500813 0.525415 0.839981
9 2 0.480963 0.548033 0.834757
10 2 0.458358 0.517196 0.85116
11 1 0.534147 0.534164 0.852111
16 2 0.517562 0.457072 0.857265
7 2 0.481849 0.524592 0.859175
1 1 0.459553 0.476245 0.863705
6 2 0.454846 0.537721 0.864751
5 2 0.500427 0.549701 0.8758
8 2 0.471269 0.549555 0.892585
13 1 0.533557 0.526768 0.89706
14 2 0.519919 0.453321 0.913633
12 1 0.533761 0.549402 0.915289
15 2 0.518376 0.480943 0.933346
25 2 0.471169 0.546233 0.942901
19 1 0.462537 0.451587 0.952493
31 2 0.522708 0.459122 0.947449
29 1 0.516968 0.517753 0.951792
20 2 0.498361 0.549982 0.956353
18 1 0.467119 0.468296 0.957672
24 2 0.468306 0.516767 0.957628
23 2 0.509382 0.537495 0.967098
27 1 0.545761 0.534433 0.966583
28 1 0.527767 0.549101 0.957404
22 2 0.461889 0.521791 0.97709
21 2 0.484218 0.53637 0.974511
26 2 0.459877 0.549444 0.973277
30 2 0.533043 0.454399 0.979363
17 1 0.466651 0.465318 0.981393
32 2 0.535075 0.479771 0.980456
ITEM: TIMESTEP
20000
ITEM: NUMBER OF ATOMS
32
ITEM: BOX BOUNDS fm fm fm
-3.0000000000000000e+01 3.0000000000000000e+01
-3.0000000000000000e+01 3.0000000000000000e+01
0.0000000000000000e+00 6.0000000000000000e+01
ITEM: ATOMS id type xs ys zs
4 2 0.500813 0.525415 0.831389
9 2 0.480963 0.548033 0.826013
3 1 0.460308 0.459983 0.833576
2 1 0.481588 0.455599 0.83315
10 2 0.458358 0.517196 0.842905
16 2 0.517562 0.457072 0.849201
7 2 0.481849 0.524592 0.851171
11 1 0.534147 0.534164 0.843886
1 1 0.459553 0.476245 0.855846
6 2 0.454846 0.537721 0.856926
5 2 0.500427 0.549701 0.868343
13 1 0.533557 0.526768 0.890367
8 2 0.471269 0.549555 0.885724
14 2 0.519919 0.453321 0.907604
12 1 0.533761 0.549402 0.909331
15 2 0.518376 0.480943 0.928222
31 2 0.522708 0.459122 0.943088
25 2 0.471169 0.546233 0.93828
19 1 0.462537 0.451587 0.948441
18 1 0.467119 0.468296 0.953965
24 2 0.468306 0.516767 0.953918
29 1 0.516968 0.517753 0.947695
20 2 0.498361 0.549982 0.952555
28 1 0.527767 0.549101 0.953678
23 2 0.509382 0.537495 0.964124
27 1 0.545761 0.534433 0.963564
30 2 0.533043 0.454399 0.977829
22 2 0.461889 0.521791 0.975198
21 2 0.484218 0.53637 0.972285
26 2 0.459877 0.549444 0.970909
17 1 0.466651 0.465318 0.980283
32 2 0.535075 0.479771 0.979132
ITEM: TIMESTEP
21000
ITEM: NUMBER OF ATOMS
32
ITEM: BOX BOUNDS fm fm fm
-3.0000000000000000e+01 3.0000000000000000e+01
-3.0000000000000000e+01 3.0000000000000000e+01
0.0000000000000000e+00 6.0000000000000000e+01
ITEM: ATOMS id type xs ys zs
9 2 0.480963 0.548033 0.817019
3 1 0.460308 0.459983 0.824797
2 1 0.481588 0.455599 0.824359
4 2 0.500813 0.525415 0.822548
16 2 0.517562 0.457072 0.840886
10 2 0.458358 0.517196 0.834401
11 1 0.534147 0.534164 0.835411
1 1 0.459553 0.476245 0.847737
7 2 0.481849 0.524592 0.842917
6 2 0.454846 0.537721 0.848851
5 2 0.500427 0.549701 0.860635
13 1 0.533557 0.526768 0.883424
8 2 0.471269 0.549555 0.878613
14 2 0.519919 0.453321 0.901326
12 1 0.533761 0.549402 0.903124
15 2 0.518376 0.480943 0.922848
25 2 0.471169 0.546233 0.933409
19 1 0.462537 0.451587 0.944139
31 2 0.522708 0.459122 0.938477
29 1 0.516968 0.517753 0.943349
18 1 0.467119 0.468296 0.950008
24 2 0.468306 0.516767 0.949958
20 2 0.498361 0.549982 0.948507
28 1 0.527767 0.549101 0.949702
23 2 0.509382 0.537495 0.960899
27 1 0.545761 0.534433 0.960295
30 2 0.533043 0.454399 0.976045
32 2 0.535075 0.479771 0.977557
22 2 0.461889 0.521791 0.973057
21 2 0.484218 0.53637 0.96981
26 2 0.459877 0.549444 0.968292
17 1 0.466651 0.465318 0.978923
ITEM: TIMESTEP
22000
ITEM: NUMBER OF ATOMS
32
ITEM: BOX BOUNDS fm fm fm
-3.0000000000000000e+01 3.0000000000000000e+01
-3.0000000000000000e+01 3.0000000000000000e+01
0.0000000000000000e+00 6.0000000000000000e+01
ITEM: ATOMS id type xs ys zs
9 2 0.480963 0.548033 0.807775
3 1 0.460308 0.459983 0.815769
2 1 0.481588 0.455599 0.815319
4 2 0.500813 0.525415 0.813457
10 2 0.458358 0.517196 0.825647
11 1 0.534147 0.534164 0.826685
16 2 0.517562 0.457072 0.832322
1 1 0.459553 0.476245 0.839378
7 2 0.481849 0.524592 0.834413
6 2 0.454846 0.537721 0.840526
5 2 0.500427 0.549701 0.852677
8 2 0.471269 0.549555 0.871252
13 1 0.533557 0.526768 0.876231
14 2 0.519919 0.453321 0.894797
12 1 0.533761 0.549402 0.896666
15 2 0.518376 0.480943 0.917223
31 2 0.522708 0.459122 0.933616
25 2 0.471169 0.546233 0.928287
19 1 0.462537 0.451587 0.939587
18 1 0.467119 0.468296 0.945801
24 2 0.468306 0.516767 0.945747
29 1 0.516968 0.517753 0.938753
20 2 0.498361 0.549982 0.944209
28 1 0.527767 0.549101 0.945477
21 2 0.484218 0.53637 0.967085
23 2 0.509382 0.537495 0.957425
27 1 0.545761 0.534433 0.956776
26 2 0.459877 0.549444 0.965425
30 2 0.533043 0.454399 0.97401
17 1 0.466651 0.465318 0.977313
32 2 0.535075 0.479771 0.975733
22 2 0.461889 0.521791 0.970665
ITEM: TIMESTEP
23000
ITEM: NUMBER OF ATOMS
32
ITEM: BOX BOUNDS fm fm fm
-3.0000000000000000e+01 3.0000000000000000e+01
-3.0000000000000000e+01 3.0000000000000000e+01
0.0000000000000000e+00 6.0000000000000000e+01
ITEM: ATOMS id type xs ys zs
9 2 0.480963 0.548033 0.798281
3 1 0.460308 0.459983 0.806491
2 1 0.481588 0.455599 0.806028
4 2 0.500813 0.525415 0.804116
10 2 0.458358 0.517196 0.816642
11 1 0.534147 0.534164 0.81771
16 2 0.517562 0.457072 0.823507
1 1 0.459553 0.476245 0.830769
7 2 0.481849 0.524592 0.825659
6 2 0.454846 0.537721 0.831951
5 2 0.500427 0.549701 0.84447
13 1 0.533557 0.526768 0.868788
8 2 0.471269 0.549555 0.863641
14 2 0.519919 0.453321 0.888019
12 1 0.533761 0.549402 0.889958
15 2 0.518376 0.480943 0.911349
25 2 0.471169 0.546233 0.922916
19 1 0.462537 0.451587 0.934785
31 2 0.522708 0.459122 0.928505
29 1 0.516968 0.517753 0.933906
18 1 0.467119 0.468296 0.941343
24 2 0.468306 0.516767 0.941287
20 2 0.498361 0.549982 0.939661
28 1 0.527767 0.549101 0.941001
23 2 0.509382 0.537495 0.953701
27 1 0.545761 0.534433 0.953007
21 2 0.484218 0.53637 0.964109
26 2 0.459877 0.549444 0.962307
30 2 0.533043 0.454399 0.971726
17 1 0.466651 0.465318 0.975453
32 2 0.535075 0.479771 0.973658
22 2 0.461889 0.521791 0.968023
ITEM: TIMESTEP
24000
ITEM: NUMBER OF ATOMS
32
ITEM: BOX BOUNDS fm fm fm
-3.0000000000000000e+01 3.0000000000000000e+01
-3.0000000000000000e+01 3.0000000000000000e+01
0.0000000000000000e+00 6.0000000000000000e+01
ITEM: ATOMS id type xs ys zs
9 2 0.480963 0.548033 0.788537
3 1 0.460308 0.459983 0.796963
2 1 0.481588 0.455599 0.796487
4 2 0.500813 0.525415 0.794524
10 2 0.458358 0.517196 0.807388
11 1 0.534147 0.534164 0.808485
16 2 0.517562 0.457072 0.814443
1 1 0.459553 0.476245 0.82191
7 2 0.481849 0.524592 0.816655
6 2 0.454846 0.537721 0.823125
5 2 0.500427 0.549701 0.836012
13 1 0.533557 0.526768 0.861095
8 2 0.471269 0.549555 0.85578
14 2 0.519919 0.453321 0.88099
12 1 0.533761 0.549402 0.883
15 2 0.518376 0.480943 0.905225
31 2 0.522708 0.459122 0.923144
25 2 0.471169 0.546233 0.917295
19 1 0.462537 0.451587 0.929733
29 1 0.516968 0.517753 0.92881
20 2 0.498361 0.549982 0.934863
18 1 0.467119 0.468296 0.936636
24 2 0.468306 0.516767 0.936577
28 1 0.527767 0.549101 0.936275
23 2 0.509382 0.537495 0.949727
27 1 0.545761 0.534433 0.948988
22 2 0.461889 0.521791 0.965131
21 2 0.484218 0.53637 0.960884
26 2 0.459877 0.549444 0.95894
30 2 0.533043 0.454399 0.969192
17 1 0.466651 0.465318 0.973343
32 2 0.535075 0.479771 0.971334
ITEM: TIMESTEP
25000
ITEM: NUMBER OF ATOMS
32
ITEM: BOX BOUNDS fm fm fm
-3.0000000000000000e+01 3.0000000000000000e+01
-3.0000000000000000e+01 3.0000000000000000e+01
0.0000000000000000e+00 6.0000000000000000e+01
ITEM: ATOMS id type xs ys zs
9 2 0.480963 0.548033 0.778543
3 1 0.460308 0.459983 0.787184
2 1 0.481588 0.455599 0.786697
4 2 0.500813 0.525415 0.784683
10 2 0.458358 0.517196 0.797883
11 1 0.534147 0.534164 0.79901
16 2 0.517562 0.457072 0.805128
7 2 0.481849 0.524592 0.807401
1 1 0.459553 0.476245 0.812801
6 2 0.454846 0.537721 0.81405
5 2 0.500427 0.549701 0.827305
8 2 0.471269 0.549555 0.847668
13 1 0.533557 0.526768 0.853153
14 2 0.519919 0.453321 0.873712
12 1 0.533761 0.549402 0.875792
15 2 0.518376 0.480943 0.89885
25 2 0.471169 0.546233 0.911423
19 1 0.462537 0.451587 0.924431
31 2 0.522708 0.459122 0.917533
29 1 0.516968 0.517753 0.923464
18 1 0.467119 0.468296 0.931679
24 2 0.468306 0.516767 0.931617
20 2 0.498361 0.549982 0.929815
28 1 0.527767 0.549101 0.931299
23 2 0.509382 0.537495 0.945502
27 1 0.545761 0.534433 0.944719
26 2 0.459877 0.549444 0.955322
30 2 0.533043 0.454399 0.966408
22 2 0.461889 0.521791 0.961989
21 2 0.484218 0.53637 0.957408
17 1 0.466651 0.465318 0.970983
32 2 0.535075 0.479771 0.968759
ITEM: TIMESTEP
26000
ITEM: NUMBER OF ATOMS
32
ITEM: BOX BOUNDS fm fm fm
-3.0000000000000000e+01 3.0000000000000000e+01
-3.0000000000000000e+01 3.0000000000000000e+01
0.0000000000000000e+00 6.0000000000000000e+01
ITEM: ATOMS id type xs ys zs
9 2 0.480963 0.548033 0.768299
3 1 0.460308 0.459983 0.777156
2 1 0.481588 0.455599 0.776656
4 2 0.500813 0.525415 0.774592
10 2 0.458358 0.517196 0.788129
11 1 0.534147 0.534164 0.789285
16 2 0.517562 0.457072 0.795564
7 2 0.481849 0.524592 0.797897
1 1 0.459553 0.476245 0.803442
6 2 0.454846 0.537721 0.804725
5 2 0.500427 0.549701 0.818347
8 2 0.471269 0.549555 0.839307
13 1 0.533557 0.526768 0.84496
14 2 0.519919 0.453321 0.866183
12 1 0.533761 0.549402 0.868334
15 2 0.518376 0.480943 0.892226
31 2 0.522708 0.459122 0.911672
25 2 0.471169 0.546233 0.905302
19 1 0.462537 0.451587 0.918879
29 1 0.516968 0.517753 0.917867
20 2 0.498361 0.549982 0.924517
18 1 0.467119 0.468296 0.926472
24 2 0.468306 0.516767 0.926407
28 1 0.527767 0.549101 0.926074
23 2 0.509382 0.537495 0.941028
27 1 0.545761 0.534433 0.9402
21 2 0.484218 0.53637 0.953683
26 2 0.459877 0.549444 0.951455
30 2 0.533043 0.454399 0.963374
32 2 0.535075 0.479771 0.965935
22 2 0.461889 0.521791 0.958597
17 1 0.466651 0.465318 0.968373
ITEM: TIMESTEP
27000
ITEM: NUMBER OF ATOMS
32
ITEM: BOX BOUNDS fm fm fm
-3.0000000000000000e+01 3.0000000000000000e+01
-3.0000000000000000e+01 3.0000000000000000e+01
0.0000000000000000e+00 6.0000000000000000e+01
ITEM: ATOMS id type xs ys zs
9 2 0.480963 0.548033 0.757804
3 1 0.460308 0.459983 0.766878
2 1 0.481588 0.455599 0.766366
4 2 0.500813 0.525415 0.764251
10 2 0.458358 0.517196 0.778125
11 1 0.534147 0.534164 0.77931
16 2 0.517562 0.457072 0.78575
7 2 0.481849 0.524592 0.788143
1 1 0.459553 0.476245 0.793833
6 2 0.454846 0.537721 0.79515
5 2 0.500427 0.549701 0.809139
8 2 0.471269 0.549555 0.830696
13 1 0.533557 0.526768 0.836517
14 2 0.519919 0.453321 0.858405
12 1 0.533761 0.549402 0.860626
15 2 0.518376 0.480943 0.885352
25 2 0.471169 0.546233 0.898931
19 1 0.462537 0.451587 0.913077
31 2 0.522708 0.459122 0.905561
29 1 0.516968 0.517753 0.912021
18 1 0.467119 0.468296 0.921015
24 2 0.468306 0.516767 0.920947
20 2 0.498361 0.549982 0.918969
28 1 0.527767 0.549101 0.920598
27 1 0.545761 0.534433 0.935431
23 2 0.509382 0.537495 0.936304
22 2 0.461889 0.521791 0.954955
21 2 0.484218 0.53637 0.949708
26 2 0.459877 0.549444 0.947337
30 2 0.533043 0.454399 0.96009
17 1 0.466651 0.465318 0.965513
32 2 0.535075 0.479771 0.96286
ITEM: TIMESTEP
28000
ITEM: NUMBER OF ATOMS
32
ITEM: BOX BOUNDS fm fm fm
-3.0000000000000000e+01 3.0000000000000000e+01
-3.0000000000000000e+01 3.0000000000000000e+01
0.0000000000000000e+00 6.0000000000000000e+01
ITEM: ATOMS id type xs ys zs
9 2 0.480963 0.548033 0.74706
3 1 0.460308 0.459983 0.756349
2 1 0.481588 0.455599 0.755825
4 2 0.500813 0.525415 0.753659
10 2 0.458358 0.517196 0.76787
11 1 0.534147 0.534164 0.769085
16 2 0.517562 0.457072 0.775685
7 2 0.481849 0.524592 0.778139
1 1 0.459553 0.476245 0.783974
6 2 0.454846 0.537721 0.785325
5 2 0.500427 0.549701 0.799682
8 2 0.471269 0.549555 0.821835
13 1 0.533557 0.526768 0.827824
14 2 0.519919 0.453321 0.850376
12 1 0.533761 0.549402 0.852668
15 2 0.518376 0.480943 0.878227
25 2 0.471169 0.546233 0.892309
31 2 0.522708 0.459122 0.8992
19 1 0.462537 0.451587 0.907025
29 1 0.516968 0.517753 0.905925
20 2 0.498361 0.549982 0.913171
28 1 0.527767 0.549101 0.914872
18 1 0.467119 0.468296 0.915308
24 2 0.468306 0.516767 0.915236
23 2 0.509382 0.537495 0.93133
27 1 0.545761 0.534433 0.930412
21 2 0.484218 0.53637 0.945482
26 2 0.459877 0.549444 0.94297
30 2 0.533043 0.454399 0.956556
22 2 0.461889 0.521791 0.951064
17 1 0.466651 0.465318 0.962403
32 2 0.535075 0.479771 0.959536
ITEM: TIMESTEP
29000
ITEM: NUMBER OF ATOMS
32
ITEM: BOX BOUNDS fm fm fm
-3.0000000000000000e+01 3.0000000000000000e+01
-3.0000000000000000e+01 3.0000000000000000e+01
0.0000000000000000e+00 6.0000000000000000e+01
ITEM: ATOMS id type xs ys zs
9 2 0.480963 0.548033 0.736066
3 1 0.460308 0.459983 0.745571
2 1 0.481588 0.455599 0.745034
4 2 0.500813 0.525415 0.742818
10 2 0.458358 0.517196 0.757366
11 1 0.534147 0.534164 0.758609
16 2 0.517562 0.457072 0.765371
7 2 0.481849 0.524592 0.767884
1 1 0.459553 0.476245 0.773865
6 2 0.454846 0.537721 0.77525
5 2 0.500427 0.549701 0.789974
13 1 0.533557 0.526768 0.818881
8 2 0.471269 0.549555 0.812724
14 2 0.519919 0.453321 0.842098
12 1 0.533761 0.549402 0.844461
15 2 0.518376 0.480943 0.870853
31 2 0.522708 0.459122 0.892589
25 2 0.471169 0.546233 0.885438
19 1 0.462537 0.451587 0.900723
29 1 0.516968 0.517753 0.899578
18 1 0.467119 0.468296 0.909351
24 2 0.468306 0.516767 0.909276
20 2 0.498361 0.549982 0.907123
28 1 0.527767 0.549101 0.908896
23 2 0.509382 0.537495 0.926105
27 1 0.545761 0.534433 0.925143
21 2 0.484218 0.53637 0.941007
26 2 0.459877 0.549444 0.938352
30 2 0.533043 0.454399 0.952772
32 2 0.535075 0.479771 0.955961
22 2 0.461889 0.521791 0.946922
17 1 0.466651 0.465318 0.959043
ITEM: TIMESTEP
30000
ITEM: NUMBER OF ATOMS
32
ITEM: BOX BOUNDS fm fm fm
-3.0000000000000000e+01 3.0000000000000000e+01
-3.0000000000000000e+01 3.0000000000000000e+01
0.0000000000000000e+00 6.0000000000000000e+01
ITEM: ATOMS id type xs ys zs
9 2 0.480963 0.548033 0.724822
3 1 0.460308 0.459983 0.734543
2 1 0.481588 0.455599 0.733994
4 2 0.500813 0.525415 0.731727
10 2 0.458358 0.517196 0.746611
11 1 0.534147 0.534164 0.747884
16 2 0.517562 0.457072 0.754806
7 2 0.481849 0.524592 0.75738
1 1 0.459553 0.476245 0.763506
6 2 0.454846 0.537721 0.764925
5 2 0.500427 0.549701 0.780017
13 1 0.533557 0.526768 0.809688
8 2 0.471269 0.549555 0.803363
14 2 0.519919 0.453321 0.83357
12 1 0.533761 0.549402 0.836003
15 2 0.518376 0.480943 0.863229
25 2 0.471169 0.546233 0.878317
31 2 0.522708 0.459122 0.885728
29 1 0.516968 0.517753 0.892982
19 1 0.462537 0.451587 0.894171
18 1 0.467119 0.468296 0.903144
24 2 0.468306 0.516767 0.903066
20 2 0.498361 0.549982 0.900825
28 1 0.527767 0.549101 0.90267
23 2 0.509382 0.537495 0.920631
27 1 0.545761 0.534433 0.919624
26 2 0.459877 0.549444 0.933485
22 2 0.461889 0.521791 0.94253
21 2 0.484218 0.53637 0.936282
30 2 0.533043 0.454399 0.948738
17 1 0.466651 0.465318 0.955433
32 2 0.535075 0.479771 0.952137
ITEM: TIMESTEP
31000
ITEM: NUMBER OF ATOMS
32
ITEM: BOX BOUNDS fm fm fm
-3.0000000000000000e+01 3.0000000000000000e+01
-3.0000000000000000e+01 3.0000000000000000e+01
0.0000000000000000e+00 6.0000000000000000e+01
ITEM: ATOMS id type xs ys zs
9 2 0.480963 0.548033 0.713328
3 1 0.460308 0.459983 0.723264
2 1 0.481588 0.455599 0.722703
4 2 0.500813 0.525415 0.720386