ITEM: TIMESTEP
0
ITEM: NUMBER OF ATOMS
0
ITEM: BOX BOUNDS fm fm fm
-3.0000000000000000e+01 3.0000000000000000e+01
-3.0000000000000000e+01 3.0000000000000000e+01
0.0000000000000000e+00 6.0000000000000000e+01
ITEM: ATOMS id type xs ys zs
ITEM: TIMESTEP
1000
ITEM: NUMBER OF ATOMS
16
ITEM: BOX BOUNDS fm fm fm
-3.0000000000000000e+01 3.0000000000000000e+01
-3.0000000000000000e+01 3.0000000000000000e+01
0.0000000000000000e+00 6.0000000000000000e+01
ITEM: ATOMS id type xs ys zs
1 1 0.459553 0.476245 0.963006
2 1 0.481588 0.455599 0.953385
3 1 0.460308 0.459983 0.953575
4 2 0.500813 0.525415 0.952596
5 2 0.500427 0.549701 0.967802
6 2 0.454846 0.537721 0.963436
7 2 0.481849 0.524592 0.961114
8 2 0.471269 0.549555 0.97374
9 2 0.480963 0.548033 0.950152
10 2 0.458358 0.517196 0.957651
11 1 0.534147 0.534164 0.958069
12 1 0.533761 0.549402 0.980021
13 1 0.533557 0.526768 0.975157
14 2 0.519919 0.453321 0.979648
15 2 0.518376 0.480943 0.982922
16 2 0.517562 0.457072 0.960302
ITEM: TIMESTEP
2000
ITEM: NUMBER OF ATOMS
16
ITEM: BOX BOUNDS fm fm fm
-3.0000000000000000e+01 3.0000000000000000e+01
-3.0000000000000000e+01 3.0000000000000000e+01
0.0000000000000000e+00 6.0000000000000000e+01
ITEM: ATOMS id type xs ys zs
3 1 0.460308 0.459983 0.950342
2 1 0.481588 0.455599 0.950142
10 2 0.458358 0.517196 0.954641
4 2 0.500813 0.525415 0.949312
11 1 0.534147 0.534164 0.955084
9 2 0.480963 0.548033 0.946743
16 2 0.517562 0.457072 0.957447
1 1 0.459553 0.476245 0.960319
7 2 0.481849 0.524592 0.958309
6 2 0.454846 0.537721 0.960777
5 2 0.500427 0.549701 0.965444
14 2 0.519919 0.453321 0.978456
13 1 0.533557 0.526768 0.973422
8 2 0.471269 0.549555 0.971868
12 1 0.533761 0.549402 0.978887
15 2 0.518376 0.480943 0.982469
ITEM: TIMESTEP
3000
ITEM: NUMBER OF ATOMS
16
ITEM: BOX BOUNDS fm fm fm
-3.0000000000000000e+01 3.0000000000000000e+01
-3.0000000000000000e+01 3.0000000000000000e+01
0.0000000000000000e+00 6.0000000000000000e+01
ITEM: ATOMS id type xs ys zs
4 2 0.500813 0.525415 0.945861
9 2 0.480963 0.548033 0.943167
3 1 0.460308 0.459983 0.946942
2 1 0.481588 0.455599 0.946732
16 2 0.517562 0.457072 0.954427
10 2 0.458358 0.517196 0.951465
7 2 0.481849 0.524592 0.955337
11 1 0.534147 0.534164 0.951931
1 1 0.459553 0.476245 0.957466
6 2 0.454846 0.537721 0.957951
5 2 0.500427 0.549701 0.962918
14 2 0.519919 0.453321 0.977097
13 1 0.533557 0.526768 0.971522
8 2 0.471269 0.549555 0.96983
12 1 0.533761 0.549402 0.977586
15 2 0.518376 0.480943 0.981848
ITEM: TIMESTEP
4000
ITEM: NUMBER OF ATOMS
16
ITEM: BOX BOUNDS fm fm fm
-3.0000000000000000e+01 3.0000000000000000e+01
-3.0000000000000000e+01 3.0000000000000000e+01
0.0000000000000000e+00 6.0000000000000000e+01
ITEM: ATOMS id type xs ys zs
3 1 0.460308 0.459983 0.943376
2 1 0.481588 0.455599 0.943156
4 2 0.500813 0.525415 0.942243
9 2 0.480963 0.548033 0.939425
16 2 0.517562 0.457072 0.951239
1 1 0.459553 0.476245 0.954446
10 2 0.458358 0.517196 0.948123
7 2 0.481849 0.524592 0.952199
6 2 0.454846 0.537721 0.954959
11 1 0.534147 0.534164 0.948613
8 2 0.471269 0.549555 0.967625
5 2 0.500427 0.549701 0.960226
14 2 0.519919 0.453321 0.975572
13 1 0.533557 0.526768 0.969454
12 1 0.533761 0.549402 0.976118
15 2 0.518376 0.480943 0.981061
ITEM: TIMESTEP
5000
ITEM: NUMBER OF ATOMS
16
ITEM: BOX BOUNDS fm fm fm
-3.0000000000000000e+01 3.0000000000000000e+01
-3.0000000000000000e+01 3.0000000000000000e+01
0.0000000000000000e+00 6.0000000000000000e+01
ITEM: ATOMS id type xs ys zs
9 2 0.480963 0.548033 0.935516
3 1 0.460308 0.459983 0.939643
2 1 0.481588 0.455599 0.939413
10 2 0.458358 0.517196 0.944614
4 2 0.500813 0.525415 0.938459
11 1 0.534147 0.534164 0.945127
16 2 0.517562 0.457072 0.947885
1 1 0.459553 0.476245 0.95126
7 2 0.481849 0.524592 0.948894
6 2 0.454846 0.537721 0.951801
5 2 0.500427 0.549701 0.957367
13 1 0.533557 0.526768 0.96722
8 2 0.471269 0.549555 0.965253
14 2 0.519919 0.453321 0.97388
12 1 0.533761 0.549402 0.974484
15 2 0.518376 0.480943 0.980108
ITEM: TIMESTEP
6000
ITEM: NUMBER OF ATOMS
16
ITEM: BOX BOUNDS fm fm fm
-3.0000000000000000e+01 3.0000000000000000e+01
-3.0000000000000000e+01 3.0000000000000000e+01
0.0000000000000000e+00 6.0000000000000000e+01
ITEM: ATOMS id type xs ys zs
3 1 0.460308 0.459983 0.935744
2 1 0.481588 0.455599 0.935503
4 2 0.500813 0.525415 0.934508
9 2 0.480963 0.548033 0.93144
16 2 0.517562 0.457072 0.944364
10 2 0.458358 0.517196 0.940938
7 2 0.481849 0.524592 0.945423
11 1 0.534147 0.534164 0.941475
1 1 0.459553 0.476245 0.947907
6 2 0.454846 0.537721 0.948475
5 2 0.500427 0.549701 0.954342
13 1 0.533557 0.526768 0.964819
8 2 0.471269 0.549555 0.962715
14 2 0.519919 0.453321 0.972022
15 2 0.518376 0.480943 0.978987
12 1 0.533761 0.549402 0.972683
ITEM: TIMESTEP
7000
ITEM: NUMBER OF ATOMS
16
ITEM: BOX BOUNDS fm fm fm
-3.0000000000000000e+01 3.0000000000000000e+01
-3.0000000000000000e+01 3.0000000000000000e+01
0.0000000000000000e+00 6.0000000000000000e+01
ITEM: ATOMS id type xs ys zs
3 1 0.460308 0.459983 0.931677
2 1 0.481588 0.455599 0.931427
10 2 0.458358 0.517196 0.937095
4 2 0.500813 0.525415 0.93039
9 2 0.480963 0.548033 0.927197
16 2 0.517562 0.457072 0.940676
1 1 0.459553 0.476245 0.944387
7 2 0.481849 0.524592 0.941784
6 2 0.454846 0.537721 0.944983
11 1 0.534147 0.534164 0.937657
5 2 0.500427 0.549701 0.95115
13 1 0.533557 0.526768 0.962251
8 2 0.471269 0.549555 0.96001
14 2 0.519919 0.453321 0.969997
15 2 0.518376 0.480943 0.9777
12 1 0.533761 0.549402 0.970716
ITEM: TIMESTEP
8000
ITEM: NUMBER OF ATOMS
16
ITEM: BOX BOUNDS fm fm fm
-3.0000000000000000e+01 3.0000000000000000e+01
-3.0000000000000000e+01 3.0000000000000000e+01
0.0000000000000000e+00 6.0000000000000000e+01
ITEM: ATOMS id type xs ys zs
4 2 0.500813 0.525415 0.926106
9 2 0.480963 0.548033 0.922788
3 1 0.460308 0.459983 0.927444
2 1 0.481588 0.455599 0.927184
10 2 0.458358 0.517196 0.933086
11 1 0.534147 0.534164 0.933671
16 2 0.517562 0.457072 0.936822
1 1 0.459553 0.476245 0.940701
7 2 0.481849 0.524592 0.93798
6 2 0.454846 0.537721 0.941324
8 2 0.471269 0.549555 0.957139
5 2 0.500427 0.549701 0.947791
14 2 0.519919 0.453321 0.967805
13 1 0.533557 0.526768 0.959517
15 2 0.518376 0.480943 0.976247
12 1 0.533761 0.549402 0.968582
ITEM: TIMESTEP
9000
ITEM: NUMBER OF ATOMS
16
ITEM: BOX BOUNDS fm fm fm
-3.0000000000000000e+01 3.0000000000000000e+01
-3.0000000000000000e+01 3.0000000000000000e+01
0.0000000000000000e+00 6.0000000000000000e+01
ITEM: ATOMS id type xs ys zs
3 1 0.460308 0.459983 0.923045
2 1 0.481588 0.455599 0.922775
4 2 0.500813 0.525415 0.921655
9 2 0.480963 0.548033 0.918212
16 2 0.517562 0.457072 0.932801
1 1 0.459553 0.476245 0.936847
10 2 0.458358 0.517196 0.92891
7 2 0.481849 0.524592 0.934008
11 1 0.534147 0.534164 0.929519
6 2 0.454846 0.537721 0.937499
5 2 0.500427 0.549701 0.944266
13 1 0.533557 0.526768 0.956616
8 2 0.471269 0.549555 0.9541
14 2 0.519919 0.453321 0.965447
12 1 0.533761 0.549402 0.966281
15 2 0.518376 0.480943 0.974627
ITEM: TIMESTEP
10000
ITEM: NUMBER OF ATOMS
16
ITEM: BOX BOUNDS fm fm fm
-3.0000000000000000e+01 3.0000000000000000e+01
-3.0000000000000000e+01 3.0000000000000000e+01
0.0000000000000000e+00 6.0000000000000000e+01
ITEM: ATOMS id type xs ys zs
9 2 0.480963 0.548033 0.91347
3 1 0.460308 0.459983 0.918479
2 1 0.481588 0.455599 0.918198
10 2 0.458358 0.517196 0.924567
4 2 0.500813 0.525415 0.917037
11 1 0.534147 0.534164 0.9252
16 2 0.517562 0.457072 0.928614
1 1 0.459553 0.476245 0.932828
7 2 0.481849 0.524592 0.92987
6 2 0.454846 0.537721 0.933507
5 2 0.500427 0.549701 0.940574
13 1 0.533557 0.526768 0.953548
8 2 0.471269 0.549555 0.950895
14 2 0.519919 0.453321 0.962921
12 1 0.533761 0.549402 0.963813
15 2 0.518376 0.480943 0.97284
ITEM: TIMESTEP
11000
ITEM: NUMBER OF ATOMS
16
ITEM: BOX BOUNDS fm fm fm
-3.0000000000000000e+01 3.0000000000000000e+01
-3.0000000000000000e+01 3.0000000000000000e+01
0.0000000000000000e+00 6.0000000000000000e+01
ITEM: ATOMS id type xs ys zs
3 1 0.460308 0.459983 0.913746
2 1 0.481588 0.455599 0.913455
4 2 0.500813 0.525415 0.912253
9 2 0.480963 0.548033 0.908561
16 2 0.517562 0.457072 0.92426
10 2 0.458358 0.517196 0.920058
7 2 0.481849 0.524592 0.925565
11 1 0.534147 0.534164 0.920715
1 1 0.459553 0.476245 0.928641
6 2 0.454846 0.537721 0.929348
5 2 0.500427 0.549701 0.936715
13 1 0.533557 0.526768 0.950314
8 2 0.471269 0.549555 0.947524
14 2 0.519919 0.453321 0.96023
12 1 0.533761 0.549402 0.961179
15 2 0.518376 0.480943 0.970886
ITEM: TIMESTEP
12000
ITEM: NUMBER OF ATOMS
16
ITEM: BOX BOUNDS fm fm fm
-3.0000000000000000e+01 3.0000000000000000e+01
-3.0000000000000000e+01 3.0000000000000000e+01
0.0000000000000000e+00 6.0000000000000000e+01
ITEM: ATOMS id type xs ys zs
9 2 0.480963 0.548033 0.903485
3 1 0.460308 0.459983 0.908846
2 1 0.481588 0.455599 0.908546
10 2 0.458358 0.517196 0.915382
4 2 0.500813 0.525415 0.907302
16 2 0.517562 0.457072 0.919739
1 1 0.459553 0.476245 0.924288
7 2 0.481849 0.524592 0.921093
6 2 0.454846 0.537721 0.925022
11 1 0.534147 0.534164 0.916063
5 2 0.500427 0.549701 0.93269
8 2 0.471269 0.549555 0.943985
13 1 0.533557 0.526768 0.946913
14 2 0.519919 0.453321 0.957371
12 1 0.533761 0.549402 0.958378
15 2 0.518376 0.480943 0.968766
ITEM: TIMESTEP
13000
ITEM: NUMBER OF ATOMS
16
ITEM: BOX BOUNDS fm fm fm
-3.0000000000000000e+01 3.0000000000000000e+01
-3.0000000000000000e+01 3.0000000000000000e+01
0.0000000000000000e+00 6.0000000000000000e+01
ITEM: ATOMS id type xs ys zs
3 1 0.460308 0.459983 0.90378
2 1 0.481588 0.455599 0.903469
4 2 0.500813 0.525415 0.902184
9 2 0.480963 0.548033 0.898243
16 2 0.517562 0.457072 0.915051
10 2 0.458358 0.517196 0.910539
11 1 0.534147 0.534164 0.911244
1 1 0.459553 0.476245 0.919768
7 2 0.481849 0.524592 0.916455
6 2 0.454846 0.537721 0.92053
5 2 0.500427 0.549701 0.928498
13 1 0.533557 0.526768 0.943345
8 2 0.471269 0.549555 0.94028
14 2 0.519919 0.453321 0.954346
12 1 0.533761 0.549402 0.955411
15 2 0.518376 0.480943 0.966479
ITEM: TIMESTEP
14000
ITEM: NUMBER OF ATOMS
16
ITEM: BOX BOUNDS fm fm fm
-3.0000000000000000e+01 3.0000000000000000e+01
-3.0000000000000000e+01 3.0000000000000000e+01
0.0000000000000000e+00 6.0000000000000000e+01
ITEM: ATOMS id type xs ys zs
9 2 0.480963 0.548033 0.892833
3 1 0.460308 0.459983 0.898547
2 1 0.481588 0.455599 0.898226
10 2 0.458358 0.517196 0.90553
4 2 0.500813 0.525415 0.8969
11 1 0.534147 0.534164 0.906259
16 2 0.517562 0.457072 0.910197
1 1 0.459553 0.476245 0.915082
7 2 0.481849 0.524592 0.91165
6 2 0.454846 0.537721 0.915871
5 2 0.500427 0.549701 0.924139
8 2 0.471269 0.549555 0.936409
13 1 0.533557 0.526768 0.939611
14 2 0.519919 0.453321 0.951154
12 1 0.533761 0.549402 0.952277
15 2 0.518376 0.480943 0.964025
ITEM: TIMESTEP
15000
ITEM: NUMBER OF ATOMS
16
ITEM: BOX BOUNDS fm fm fm
-3.0000000000000000e+01 3.0000000000000000e+01
-3.0000000000000000e+01 3.0000000000000000e+01
0.0000000000000000e+00 6.0000000000000000e+01
ITEM: ATOMS id type xs ys zs
3 1 0.460308 0.459983 0.893147
2 1 0.481588 0.455599 0.892817
4 2 0.500813 0.525415 0.891449
9 2 0.480963 0.548033 0.887258
16 2 0.517562 0.457072 0.905176
10 2 0.458358 0.517196 0.900354
11 1 0.534147 0.534164 0.901107
1 1 0.459553 0.476245 0.910229
7 2 0.481849 0.524592 0.906679
6 2 0.454846 0.537721 0.911046
5 2 0.500427 0.549701 0.919614
13 1 0.533557 0.526768 0.93571
8 2 0.471269 0.549555 0.93237
14 2 0.519919 0.453321 0.947796
12 1 0.533761 0.549402 0.948976
15 2 0.518376 0.480943 0.961405
ITEM: TIMESTEP
16000
ITEM: NUMBER OF ATOMS
16
ITEM: BOX BOUNDS fm fm fm
-3.0000000000000000e+01 3.0000000000000000e+01
-3.0000000000000000e+01 3.0000000000000000e+01
0.0000000000000000e+00 6.0000000000000000e+01
ITEM: ATOMS id type xs ys zs
9 2 0.480963 0.548033 0.881515
3 1 0.460308 0.459983 0.887581
2 1 0.481588 0.455599 0.88724
10 2 0.458358 0.517196 0.895011
4 2 0.500813 0.525415 0.885831
16 2 0.517562 0.457072 0.899989
1 1 0.459553 0.476245 0.905209
7 2 0.481849 0.524592 0.90154
11 1 0.534147 0.534164 0.895788
6 2 0.454846 0.537721 0.906054
5 2 0.500427 0.549701 0.914922
13 1 0.533557 0.526768 0.931642
8 2 0.471269 0.549555 0.928165
14 2 0.519919 0.453321 0.944271
12 1 0.533761 0.549402 0.945508
15 2 0.518376 0.480943 0.958618
ITEM: TIMESTEP
17000
ITEM: NUMBER OF ATOMS
16
ITEM: BOX BOUNDS fm fm fm
-3.0000000000000000e+01 3.0000000000000000e+01
-3.0000000000000000e+01 3.0000000000000000e+01
0.0000000000000000e+00 6.0000000000000000e+01
ITEM: ATOMS id type xs ys zs
9 2 0.480963 0.548033 0.875606
3 1 0.460308 0.459983 0.881848
2 1 0.481588 0.455599 0.881497
4 2 0.500813 0.525415 0.880047
16 2 0.517562 0.457072 0.894635
10 2 0.458358 0.517196 0.889502
11 1 0.534147 0.534164 0.890303
1 1 0.459553 0.476245 0.900022
7 2 0.481849 0.524592 0.896235
6 2 0.454846 0.537721 0.900895
5 2 0.500427 0.549701 0.910063
8 2 0.471269 0.549555 0.923794
13 1 0.533557 0.526768 0.927408
14 2 0.519919 0.453321 0.940579
12 1 0.533761 0.549402 0.941874
15 2 0.518376 0.480943 0.955664
ITEM: TIMESTEP
18000
ITEM: NUMBER OF ATOMS
16
ITEM: BOX BOUNDS fm fm fm
-3.0000000000000000e+01 3.0000000000000000e+01
-3.0000000000000000e+01 3.0000000000000000e+01
0.0000000000000000e+00 6.0000000000000000e+01
ITEM: ATOMS id type xs ys zs
4 2 0.500813 0.525415 0.874096
9 2 0.480963 0.548033 0.86953
3 1 0.460308 0.459983 0.875948
2 1 0.481588 0.455599 0.875588
10 2 0.458358 0.517196 0.883826
11 1 0.534147 0.534164 0.884651
16 2 0.517562 0.457072 0.889114
1 1 0.459553 0.476245 0.894669
7 2 0.481849 0.524592 0.890764
6 2 0.454846 0.537721 0.89557
5 2 0.500427 0.549701 0.905038
13 1 0.533557 0.526768 0.923007
8 2 0.471269 0.549555 0.919255
14 2 0.519919 0.453321 0.93672
12 1 0.533761 0.549402 0.938073
15 2 0.518376 0.480943 0.952544
ITEM: TIMESTEP
19000
ITEM: NUMBER OF ATOMS
16
ITEM: BOX BOUNDS fm fm fm
-3.0000000000000000e+01 3.0000000000000000e+01
-3.0000000000000000e+01 3.0000000000000000e+01
0.0000000000000000e+00 6.0000000000000000e+01
ITEM: ATOMS id type xs ys zs
9 2 0.480963 0.548033 0.863288
3 1 0.460308 0.459983 0.869882
2 1 0.481588 0.455599 0.869511
4 2 0.500813 0.525415 0.867978
16 2 0.517562 0.457072 0.883426
10 2 0.458358 0.517196 0.877983
7 2 0.481849 0.524592 0.885126
11 1 0.534147 0.534164 0.878832
1 1 0.459553 0.476245 0.88915
6 2 0.454846 0.537721 0.890078
5 2 0.500427 0.549701 0.899846
8 2 0.471269 0.549555 0.91455
13 1 0.533557 0.526768 0.918439
14 2 0.519919 0.453321 0.932695
12 1 0.533761 0.549402 0.934106
15 2 0.518376 0.480943 0.949257
ITEM: TIMESTEP
20000
ITEM: NUMBER OF ATOMS
16
ITEM: BOX BOUNDS fm fm fm
-3.0000000000000000e+01 3.0000000000000000e+01
-3.0000000000000000e+01 3.0000000000000000e+01
0.0000000000000000e+00 6.0000000000000000e+01
ITEM: ATOMS id type xs ys zs
3 1 0.460308 0.459983 0.863649
2 1 0.481588 0.455599 0.863269
4 2 0.500813 0.525415 0.861694
9 2 0.480963 0.548033 0.856879
10 2 0.458358 0.517196 0.871974
11 1 0.534147 0.534164 0.872847
16 2 0.517562 0.457072 0.877572
1 1 0.459553 0.476245 0.883463
7 2 0.481849 0.524592 0.879321
6 2 0.454846 0.537721 0.884419
5 2 0.500427 0.549701 0.894487
13 1 0.533557 0.526768 0.913705
8 2 0.471269 0.549555 0.909679
14 2 0.519919 0.453321 0.928503
12 1 0.533761 0.549402 0.929972
15 2 0.518376 0.480943 0.945803
ITEM: TIMESTEP
21000
ITEM: NUMBER OF ATOMS
32
ITEM: BOX BOUNDS fm fm fm
-3.0000000000000000e+01 3.0000000000000000e+01
-3.0000000000000000e+01 3.0000000000000000e+01
0.0000000000000000e+00 6.0000000000000000e+01
ITEM: ATOMS id type xs ys zs
9 2 0.480963 0.548033 0.850303
3 1 0.460308 0.459983 0.85725
2 1 0.481588 0.455599 0.856859
4 2 0.500813 0.525415 0.855243
16 2 0.517562 0.457072 0.871551
10 2 0.458358 0.517196 0.865798
7 2 0.481849 0.524592 0.873349
11 1 0.534147 0.534164 0.866694
1 1 0.459553 0.476245 0.87761
6 2 0.454846 0.537721 0.878593
5 2 0.500427 0.549701 0.888961
8 2 0.471269 0.549555 0.904641
13 1 0.533557 0.526768 0.908804
14 2 0.519919 0.453321 0.924145
12 1 0.533761 0.549402 0.925671
15 2 0.518376 0.480943 0.942183
31 2 0.522708 0.459122 0.95487
25 2 0.471169 0.546233 0.950805
19 1 0.462537 0.451587 0.959341
18 1 0.467119 0.468296 0.963881
24 2 0.468306 0.516767 0.963843
29 1 0.516968 0.517753 0.958723
20 2 0.498361 0.549982 0.962731
28 1 0.527767 0.549101 0.963648
21 2 0.484218 0.53637 0.977974
23 2 0.509382 0.537495 0.971949
27 1 0.545761 0.534433 0.971518
26 2 0.459877 0.549444 0.977004
30 2 0.533043 0.454399 0.981545
17 1 0.466651 0.465318 0.982789
32 2 0.535075 0.479771 0.98225
22 2 0.461889 0.521791 0.979936
ITEM: TIMESTEP
22000
ITEM: NUMBER OF ATOMS
32
ITEM: BOX BOUNDS fm fm fm
-3.0000000000000000e+01 3.0000000000000000e+01
-3.0000000000000000e+01 3.0000000000000000e+01
0.0000000000000000e+00 6.0000000000000000e+01
ITEM: ATOMS id type xs ys zs
3 1 0.460308 0.459983 0.850683
2 1 0.481588 0.455599 0.850283
4 2 0.500813 0.525415 0.848625
9 2 0.480963 0.548033 0.84356
10 2 0.458358 0.517196 0.859455
11 1 0.534147 0.534164 0.860376
16 2 0.517562 0.457072 0.865364
1 1 0.459553 0.476245 0.87159
7 2 0.481849 0.524592 0.867211
6 2 0.454846 0.537721 0.872601
5 2 0.500427 0.549701 0.883269
13 1 0.533557 0.526768 0.903736
8 2 0.471269 0.549555 0.899436
14 2 0.519919 0.453321 0.91962
12 1 0.533761 0.549402 0.921203
15 2 0.518376 0.480943 0.938396
19 1 0.462537 0.451587 0.95643
31 2 0.522708 0.459122 0.951706
29 1 0.516968 0.517753 0.955775
25 2 0.471169 0.546233 0.947429
18 1 0.467119 0.468296 0.961252
24 2 0.468306 0.516767 0.961211
20 2 0.498361 0.549982 0.960027
28 1 0.527767 0.549101 0.961003
22 2 0.461889 0.521791 0.978788
21 2 0.484218 0.53637 0.976554
23 2 0.509382 0.537495 0.969918
27 1 0.545761 0.534433 0.96945
26 2 0.459877 0.549444 0.975468
30 2 0.533043 0.454399 0.980689
17 1 0.466651 0.465318 0.98228
32 2 0.535075 0.479771 0.981565
ITEM: TIMESTEP
23000
ITEM: NUMBER OF ATOMS
32
ITEM: BOX BOUNDS fm fm fm
-3.0000000000000000e+01 3.0000000000000000e+01
-3.0000000000000000e+01 3.0000000000000000e+01
0.0000000000000000e+00 6.0000000000000000e+01
ITEM: ATOMS id type xs ys zs
4 2 0.500813 0.525415 0.841841
9 2 0.480963 0.548033 0.836651
3 1 0.460308 0.459983 0.84395
2 1 0.481588 0.455599 0.84354
10 2 0.458358 0.517196 0.852946
16 2 0.517562 0.457072 0.859009
7 2 0.481849 0.524592 0.860906
11 1 0.534147 0.534164 0.85389
1 1 0.459553 0.476245 0.865404
6 2 0.454846 0.537721 0.866442
5 2 0.500427 0.549701 0.877411
8 2 0.471269 0.549555 0.894064
13 1 0.533557 0.526768 0.898502
14 2 0.519919 0.453321 0.914928
12 1 0.533761 0.549402 0.916569
15 2 0.518376 0.480943 0.934443
25 2 0.471169 0.546233 0.943886
19 1 0.462537 0.451587 0.953352
31 2 0.522708 0.459122 0.948376
29 1 0.516968 0.517753 0.952661
18 1 0.467119 0.468296 0.958455
24 2 0.468306 0.516767 0.958412
23 2 0.509382 0.537495 0.96772
27 1 0.545761 0.534433 0.967215
20 2 0.498361 0.549982 0.957156
28 1 0.527767 0.549101 0.958191
22 2 0.461889 0.521791 0.977474
21 2 0.484218 0.53637 0.974968
26 2 0.459877 0.549444 0.973765
30 2 0.533043 0.454399 0.979667
17 1 0.466651 0.465318 0.981604
32 2 0.535075 0.479771 0.980714
ITEM: TIMESTEP
24000
ITEM: NUMBER OF ATOMS
32
ITEM: BOX BOUNDS fm fm fm
-3.0000000000000000e+01 3.0000000000000000e+01
-3.0000000000000000e+01 3.0000000000000000e+01
0.0000000000000000e+00 6.0000000000000000e+01
ITEM: ATOMS id type xs ys zs
9 2 0.480963 0.548033 0.829575
3 1 0.460308 0.459983 0.837051
2 1 0.481588 0.455599 0.83663
4 2 0.500813 0.525415 0.83489
16 2 0.517562 0.457072 0.852488
10 2 0.458358 0.517196 0.84627
7 2 0.481849 0.524592 0.854434
11 1 0.534147 0.534164 0.847238
1 1 0.459553 0.476245 0.859051
6 2 0.454846 0.537721 0.860117
5 2 0.500427 0.549701 0.871385
13 1 0.533557 0.526768 0.893101
8 2 0.471269 0.549555 0.888526
14 2 0.519919 0.453321 0.910069
12 1 0.533761 0.549402 0.911768
15 2 0.518376 0.480943 0.930322
31 2 0.522708 0.459122 0.944879
25 2 0.471169 0.546233 0.940176
19 1 0.462537 0.451587 0.950107
18 1 0.467119 0.468296 0.955492
24 2 0.468306 0.516767 0.955446
29 1 0.516968 0.517753 0.94938
20 2 0.498361 0.549982 0.954119
28 1 0.527767 0.549101 0.955213
23 2 0.509382 0.537495 0.965355
27 1 0.545761 0.534433 0.964814
30 2 0.533043 0.454399 0.978478
22 2 0.461889 0.521791 0.975993
21 2 0.484218 0.53637 0.973214
26 2 0.459877 0.549444 0.971896
17 1 0.466651 0.465318 0.980762
32 2 0.535075 0.479771 0.979697
ITEM: TIMESTEP
25000
ITEM: NUMBER OF ATOMS
32
ITEM: BOX BOUNDS fm fm fm
-3.0000000000000000e+01 3.0000000000000000e+01
-3.0000000000000000e+01 3.0000000000000000e+01
0.0000000000000000e+00 6.0000000000000000e+01
ITEM: ATOMS id type xs ys zs
9 2 0.480963 0.548033 0.822333
3 1 0.460308 0.459983 0.829985
2 1 0.481588 0.455599 0.829554
4 2 0.500813 0.525415 0.827772
10 2 0.458358 0.517196 0.839427
11 1 0.534147 0.534164 0.84042
16 2 0.517562 0.457072 0.845801
1 1 0.459553 0.476245 0.852531
7 2 0.481849 0.524592 0.847796
6 2 0.454846 0.537721 0.853625
5 2 0.500427 0.549701 0.865193
8 2 0.471269 0.549555 0.882821
13 1 0.533557 0.526768 0.887533
14 2 0.519919 0.453321 0.905044
12 1 0.533761 0.549402 0.906801
15 2 0.518376 0.480943 0.926035
25 2 0.471169 0.546233 0.9363
19 1 0.462537 0.451587 0.946696
31 2 0.522708 0.459122 0.941215
29 1 0.516968 0.517753 0.945932
18 1 0.467119 0.468296 0.952362
24 2 0.468306 0.516767 0.952314
20 2 0.498361 0.549982 0.950915
28 1 0.527767 0.549101 0.952068
23 2 0.509382 0.537495 0.962823
27 1 0.545761 0.534433 0.962246
30 2 0.533043 0.454399 0.977123
32 2 0.535075 0.479771 0.978512
22 2 0.461889 0.521791 0.974345
21 2 0.484218 0.53637 0.971294
26 2 0.459877 0.549444 0.96986
17 1 0.466651 0.465318 0.979752
ITEM: TIMESTEP
26000
ITEM: NUMBER OF ATOMS
32
ITEM: BOX BOUNDS fm fm fm
-3.0000000000000000e+01 3.0000000000000000e+01
-3.0000000000000000e+01 3.0000000000000000e+01
0.0000000000000000e+00 6.0000000000000000e+01
ITEM: ATOMS id type xs ys zs
3 1 0.460308 0.459983 0.822752
2 1 0.481588 0.455599 0.822311
4 2 0.500813 0.525415 0.820488
9 2 0.480963 0.548033 0.814924
10 2 0.458358 0.517196 0.832418
11 1 0.534147 0.534164 0.833434
16 2 0.517562 0.457072 0.838947
7 2 0.481849 0.524592 0.840991
1 1 0.459553 0.476245 0.845844
6 2 0.454846 0.537721 0.846966
5 2 0.500427 0.549701 0.858835
13 1 0.533557 0.526768 0.881799
8 2 0.471269 0.549555 0.876949
14 2 0.519919 0.453321 0.899853
12 1 0.533761 0.549402 0.901667
15 2 0.518376 0.480943 0.921582
25 2 0.471169 0.546233 0.932257
19 1 0.462537 0.451587 0.943118
31 2 0.522708 0.459122 0.937385
29 1 0.516968 0.517753 0.942318
18 1 0.467119 0.468296 0.949066
24 2 0.468306 0.516767 0.949015
20 2 0.498361 0.549982 0.947544
28 1 0.527767 0.549101 0.948756
23 2 0.509382 0.537495 0.960125
27 1 0.545761 0.534433 0.959511
26 2 0.459877 0.549444 0.967657
30 2 0.533043 0.454399 0.975601
17 1 0.466651 0.465318 0.978576
32 2 0.535075 0.479771 0.977161
22 2 0.461889 0.521791 0.972531
21 2 0.484218 0.53637 0.969208
ITEM: TIMESTEP
27000
ITEM: NUMBER OF ATOMS
32
ITEM: BOX BOUNDS fm fm fm
-3.0000000000000000e+01 3.0000000000000000e+01
-3.0000000000000000e+01 3.0000000000000000e+01
0.0000000000000000e+00 6.0000000000000000e+01
ITEM: ATOMS id type xs ys zs
4 2 0.500813 0.525415 0.813037
9 2 0.480963 0.548033 0.807348
3 1 0.460308 0.459983 0.815352
2 1 0.481588 0.455599 0.814901
16 2 0.517562 0.457072 0.831926
10 2 0.458358 0.517196 0.825242
7 2 0.481849 0.524592 0.83402
11 1 0.534147 0.534164 0.826282
1 1 0.459553 0.476245 0.838991
6 2 0.454846 0.537721 0.840141
5 2 0.500427 0.549701 0.852309
8 2 0.471269 0.549555 0.870911
13 1 0.533557 0.526768 0.875898
14 2 0.519919 0.453321 0.894494
12 1 0.533761 0.549402 0.896366
15 2 0.518376 0.480943 0.916962
31 2 0.522708 0.459122 0.933388
25 2 0.471169 0.546233 0.928048
19 1 0.462537 0.451587 0.939373
18 1 0.467119 0.468296 0.945603
24 2 0.468306 0.516767 0.945549
29 1 0.516968 0.517753 0.938537
20 2 0.498361 0.549982 0.944007
28 1 0.527767 0.549101 0.945278
23 2 0.509382 0.537495 0.957261
27 1 0.545761 0.534433 0.95661
21 2 0.484218 0.53637 0.966954
26 2 0.459877 0.549444 0.965288
30 2 0.533043 0.454399 0.973912
17 1 0.466651 0.465318 0.977234
32 2 0.535075 0.479771 0.975644
22 2 0.461889 0.521791 0.97055
ITEM: TIMESTEP
28000
ITEM: NUMBER OF ATOMS
32
ITEM: BOX BOUNDS fm fm fm
-3.0000000000000000e+01 3.0000000000000000e+01
-3.0000000000000000e+01 3.0000000000000000e+01
0.0000000000000000e+00 6.0000000000000000e+01
ITEM: ATOMS id type xs ys zs
9 2 0.480963 0.548033 0.799606
3 1 0.460308 0.459983 0.807786
2 1 0.481588 0.455599 0.807325
4 2 0.500813 0.525415 0.805419
10 2 0.458358 0.517196 0.817899
11 1 0.534147 0.534164 0.818963
16 2 0.517562 0.457072 0.824738
1 1 0.459553 0.476245 0.831971
7 2 0.481849 0.524592 0.826882
6 2 0.454846 0.537721 0.833149
5 2 0.500427 0.549701 0.845617
13 1 0.533557 0.526768 0.86983
8 2 0.471269 0.549555 0.864706
14 2 0.519919 0.453321 0.888969
12 1 0.533761 0.549402 0.890898
15 2 0.518376 0.480943 0.912175
25 2 0.471169 0.546233 0.923671
19 1 0.462537 0.451587 0.935462
31 2 0.522708 0.459122 0.929224
29 1 0.516968 0.517753 0.934589
18 1 0.467119 0.468296 0.941973
24 2 0.468306 0.516767 0.941917
20 2 0.498361 0.549982 0.940303
28 1 0.527767 0.549101 0.941633
23 2 0.509382 0.537495 0.954229
27 1 0.545761 0.534433 0.953542
21 2 0.484218 0.53637 0.964534
26 2 0.459877 0.549444 0.962752
30 2 0.533043 0.454399 0.972056
17 1 0.466651 0.465318 0.975725
32 2 0.535075 0.479771 0.973959
22 2 0.461889 0.521791 0.968402
ITEM: TIMESTEP
29000
ITEM: NUMBER OF ATOMS
32
ITEM: BOX BOUNDS fm fm fm
-3.0000000000000000e+01 3.0000000000000000e+01
-3.0000000000000000e+01 3.0000000000000000e+01
0.0000000000000000e+00 6.0000000000000000e+01
ITEM: ATOMS id type xs ys zs
9 2 0.480963 0.548033 0.791696
3 1 0.460308 0.459983 0.800053
2 1 0.481588 0.455599 0.799582
4 2 0.500813 0.525415 0.797635
10 2 0.458358 0.517196 0.81039
11 1 0.534147 0.534164 0.811478
16 2 0.517562 0.457072 0.817384
7 2 0.481849 0.524592 0.819577
1 1 0.459553 0.476245 0.824785
6 2 0.454846 0.537721 0.82599
5 2 0.500427 0.549701 0.838758
13 1 0.533557 0.526768 0.863596
8 2 0.471269 0.549555 0.858334
14 2 0.519919 0.453321 0.883277
12 1 0.533761 0.549402 0.885264
15 2 0.518376 0.480943 0.907221
31 2 0.522708 0.459122 0.924894
25 2 0.471169 0.546233 0.919129
19 1 0.462537 0.451587 0.931384
29 1 0.516968 0.517753 0.930475
20 2 0.498361 0.549982 0.936432
18 1 0.467119 0.468296 0.938176
24 2 0.468306 0.516767 0.938118
28 1 0.527767 0.549101 0.937821
23 2 0.509382 0.537495 0.951031
27 1 0.545761 0.534433 0.950307
22 2 0.461889 0.521791 0.966088
21 2 0.484218 0.53637 0.961948
26 2 0.459877 0.549444 0.960049
30 2 0.533043 0.454399 0.970034
17 1 0.466651 0.465318 0.974049
32 2 0.535075 0.479771 0.972108
ITEM: TIMESTEP
30000
ITEM: NUMBER OF ATOMS
32
ITEM: BOX BOUNDS fm fm fm
-3.0000000000000000e+01 3.0000000000000000e+01
-3.0000000000000000e+01 3.0000000000000000e+01
0.0000000000000000e+00 6.0000000000000000e+01
ITEM: ATOMS id type xs ys zs
3 1 0.460308 0.459983 0.792153
2 1 0.481588 0.455599 0.791672
4 2 0.500813 0.525415 0.789684
9 2 0.480963 0.548033 0.783621
10 2 0.458358 0.517196 0.802714
11 1 0.534147 0.534164 0.803826
16 2 0.517562 0.457072 0.809863
7 2 0.481849 0.524592 0.812105
1 1 0.459553 0.476245 0.817432
6 2 0.454846 0.537721 0.818664
5 2 0.500427 0.549701 0.831733
8 2 0.471269 0.549555 0.851796
13 1 0.533557 0.526768 0.857195
14 2 0.519919 0.453321 0.877419
12 1 0.533761 0.549402 0.879463
15 2 0.518376 0.480943 0.902101
25 2 0.471169 0.546233 0.914419
31 2 0.522708 0.459122 0.920397
29 1 0.516968 0.517753 0.926194
19 1 0.462537 0.451587 0.927139
18 1 0.467119 0.468296 0.934213
24 2 0.468306 0.516767 0.934153
20 2 0.498361 0.549982 0.932395
28 1 0.527767 0.549101 0.933843
27 1 0.545761 0.534433 0.946906
23 2 0.509382 0.537495 0.947666
26 2 0.459877 0.549444 0.95718
30 2 0.533043 0.454399 0.967845
22 2 0.461889 0.521791 0.963607
21 2 0.484218 0.53637 0.959194
17 1 0.466651 0.465318 0.972206
32 2 0.535075 0.479771 0.97009
ITEM: TIMESTEP
31000
ITEM: NUMBER OF ATOMS
32
ITEM: BOX BOUNDS fm fm fm
-3.0000000000000000e+01 3.0000000000000000e+01
-3.0000000000000000e+01 3.0000000000000000e+01
0.0000000000000000e+00 6.0000000000000000e+01
ITEM: ATOMS id type xs ys zs
4 2 0.500813 0.525415 0.781566
9 2 0.480963 0.548033 0.775378
3 1 0.460308 0.459983 0.784087
2 1 0.481588 0.455599 0.783596
16 2 0.517562 0.457072 0.802176
10 2 0.458358 0.517196 0.794872
11 1 0.534147 0.534164 0.796007
1 1 0.459553 0.476245 0.809912
7 2 0.481849 0.524592 0.804467
6 2 0.454846 0.537721 0.811172
5 2 0.500427 0.549701 0.824541
13 1 0.533557 0.526768 0.850627
8 2 0.471269 0.549555 0.845091
14 2 0.519919 0.453321 0.871394
12 1 0.533761 0.549402 0.873496
15 2 0.518376 0.480943 0.896814
25 2 0.471169 0.546233 0.909543
19 1 0.462537 0.451587 0.922728
31 2 0.522708 0.459122 0.915733
29 1 0.516968 0.517753 0.921747
18 1 0.467119 0.468296 0.930084
24 2 0.468306 0.516767 0.93002
20 2 0.498361 0.549982 0.928191
28 1 0.527767 0.549101 0.929698
23 2 0.509382 0.537495 0.944135
27 1 0.545761 0.534433 0.943338
21 2 0.484218 0.53637 0.956274
26 2 0.459877 0.549444 0.954144
30 2 0.533043 0.454399 0.96549
22 2 0.461889 0.521791 0.960959
17 1 0.466651 0.465318 0.970197
32 2 0.535075 0.479771 0.967906
ITEM: TIMESTEP
32000
ITEM: NUMBER OF ATOMS
32
ITEM: BOX BOUNDS fm fm fm
-3.0000000000000000e+01 3.0000000000000000e+01
-3.0000000000000000e+01 3.0000000000000000e+01
0.0000000000000000e+00 6.0000000000000000e+01
ITEM: ATOMS id type xs ys zs
9 2 0.480963 0.548033 0.766969
3 1 0.460308 0.459983 0.775854
2 1 0.481588 0.455599 0.775353
4 2 0.500813 0.525415 0.773282
10 2 0.458358 0.517196 0.786862
11 1 0.534147 0.534164 0.788022
16 2 0.517562 0.457072 0.794322
1 1 0.459553 0.476245 0.802226
7 2 0.481849 0.524592 0.796662
6 2 0.454846 0.537721 0.803513
5 2 0.500427 0.549701 0.817182
8 2 0.471269 0.549555 0.838219
13 1 0.533557 0.526768 0.843893
14 2 0.519919 0.453321 0.865202
12 1 0.533761 0.549402 0.867362
15 2 0.518376 0.480943 0.89136
25 2 0.471169 0.546233 0.9045
31 2 0.522708 0.459122 0.910903
19 1 0.462537 0.451587 0.91815
18 1 0.467119 0.468296 0.925787
24 2 0.468306 0.516767 0.925721
29 1 0.516968 0.517753 0.917132
20 2 0.498361 0.549982 0.92382
28 1 0.527767 0.549101 0.925386
23 2 0.509382 0.537495 0.940437
27 1 0.545761 0.534433 0.939603
21 2 0.484218 0.53637 0.953188
26 2 0.459877 0.549444 0.950941
30 2 0.533043 0.454399 0.962967